Created by /global/cfs/cdirs/m5056/rsb/codes/ATLAS-toolkit/scripts/createLammpsInput.pl on Thu Apr  9 14:48:01 2026

         879 atoms
         566 bonds
         273 angles

           6 atom types
           2 bond types
           1 angle types

		   0.000000  20.249240 xlo xhi
		   0.000000  20.249240 ylo yhi
		   0.000000  20.249240 zlo zhi

Masses

    1 1.5999E+01 # OW     
    2 1.0080E+00 # HW     
    3 6.9410E+00 # Li     
    4 3.9948E+01 # K_     
    5 1.5999E+01 # O_3    
    6 1.0080E+00 # H_     

Atoms

       1        1        1 -1.04000000   14.79305   15.29450   16.84820    0    0    0
       2        1        2  0.52000000   15.67914   15.01954   16.61349    0    0    0
       3        1        2  0.52000000   14.52780   14.68596   17.53831    0    0    0
       4        2        1 -1.04000000   13.71914   15.11225    4.24722    0    0    0
       5        2        2  0.52000000   14.49174   14.58167    4.44068    0    0    0
       6        2        2  0.52000000   13.78912   15.30608    3.31210    0    0    0
       7        3        1 -1.04000000    5.92651    4.30792    8.77112    0    0    0
       8        3        2  0.52000000    5.46775    3.46821    8.78806    0    0    0
       9        3        2  0.52000000    6.60574    4.22387    9.44082    0    0    0
      10        4        1 -1.04000000   11.19698   12.33627    3.97308    0    0    0
      11        4        2  0.52000000   10.38105   12.09882    3.53295    0    0    0
      12        4        2  0.52000000   11.42197   11.56491    4.49397    0    0    0
      13        5        1 -1.04000000   15.13518   19.73739    6.25567    0    0    0
      14        5        2  0.52000000   14.50634   19.59596    5.54827    0    0    0
      15        5        2  0.52000000   15.35848   20.66665    6.19606    0    0    0
      16        6        1 -1.04000000   -0.03466    7.64556    9.16055    0    0    0
      17        6        2  0.52000000   -0.50584    7.99432    8.40410    0    0    0
      18        6        2  0.52000000    0.54050    8.36012    9.43535    0    0    0
      19        7        1 -1.04000000    4.64263    1.14157    1.93040    0    0    0
      20        7        2  0.52000000    4.90064    0.50476    2.59655    0    0    0
      21        7        2  0.52000000    5.45674    1.35367    1.47305    0    0    0
      22        8        1 -1.04000000   10.91106    6.86996   18.64254    0    0    0
      23        8        2  0.52000000   10.59906    6.53357   19.48239    0    0    0
      24        8        2  0.52000000   11.48988    7.59647   18.87507    0    0    0
      25        9        1 -1.04000000    1.13549   18.88170   12.34677    0    0    0
      26        9        2  0.52000000    1.58622   18.85774   11.50290    0    0    0
      27        9        2  0.52000000    0.27829   19.26057   12.15033    0    0    0
      28       10        1 -1.04000000   14.70134   17.88441   12.77630    0    0    0
      29       10        2  0.52000000   14.74377   17.90361   13.73216    0    0    0
      30       10        2  0.52000000   15.55489   18.21198   12.49154    0    0    0
      31       11        1 -1.04000000   10.84950    4.72633   13.23464    0    0    0
      32       11        2  0.52000000   11.16654    5.59600   13.47755    0    0    0
      33       11        2  0.52000000   10.98396    4.67767   12.28781    0    0    0
      34       12        1 -1.04000000   14.08893    3.89859   15.36662    0    0    0
      35       12        2  0.52000000   14.08151    3.33955   14.58991    0    0    0
      36       12        2  0.52000000   13.82956    4.76186   15.04347    0    0    0
      37       13        1 -1.04000000   16.03520   -0.16445    5.64741    0    0    0
      38       13        2  0.52000000   16.50890   -0.38890    6.44809    0    0    0
      39       13        2  0.52000000   15.45590    0.55335    5.90449    0    0    0
      40       14        1 -1.04000000   -0.31811    1.04552    6.77789    0    0    0
      41       14        2  0.52000000   -0.13808    0.34686    7.40662    0    0    0
      42       14        2  0.52000000    0.45619    1.60763    6.81549    0    0    0
      43       15        1 -1.04000000    4.95420   16.15110    0.64269    0    0    0
      44       15        2  0.52000000    5.66056   16.32315    1.26501    0    0    0
      45       15        2  0.52000000    4.38524   15.52575    1.09230    0    0    0
      46       16        1 -1.04000000    6.91023    4.81666   10.66694    0    0    0
      47       16        2  0.52000000    6.33299    5.00140   11.40755    0    0    0
      48       16        2  0.52000000    7.75678    5.18193   10.92551    0    0    0
      49       17        1 -1.04000000   15.98839    5.02260   18.61018    0    0    0
      50       17        2  0.52000000   15.96395    4.23409   19.15195    0    0    0
      51       17        2  0.52000000   16.04766    5.74331   19.23787    0    0    0
      52       18        1 -1.04000000   10.23536    5.83135   -0.26223    0    0    0
      53       18        2  0.52000000   10.25627    5.73641    0.68982    0    0    0
      54       18        2  0.52000000    9.50837    6.43224   -0.42759    0    0    0
      55       19        1 -1.04000000   11.72959    2.28185   11.99352    0    0    0
      56       19        2  0.52000000   11.82671    1.57828   12.63493    0    0    0
      57       19        2  0.52000000   12.44369    2.13987   11.37156    0    0    0
      58       20        1 -1.04000000   12.81130    3.88221    3.32112    0    0    0
      59       20        2  0.52000000   12.61565    4.64146    2.77240    0    0    0
      60       20        2  0.52000000   13.57305    3.47633    2.90648    0    0    0
      61       21        1 -1.04000000    7.72701    2.20141   12.19368    0    0    0
      62       21        2  0.52000000    8.64662    2.43405   12.06702    0    0    0
      63       21        2  0.52000000    7.62637    1.36454   11.73930    0    0    0
      64       22        1 -1.04000000    4.02554    7.61035   11.01091    0    0    0
      65       22        2  0.52000000    4.48074    8.24272   11.56655    0    0    0
      66       22        2  0.52000000    3.49372    8.14693   10.42254    0    0    0
      67       23        1 -1.04000000    8.09530    8.67151   13.18871    0    0    0
      68       23        2  0.52000000    7.32392    9.22159   13.32376    0    0    0
      69       23        2  0.52000000    8.58078    9.10691   12.48753    0    0    0
      70       24        1 -1.04000000   12.71954   10.27000    7.96770    0    0    0
      71       24        2  0.52000000   12.79052    9.57484    8.62158    0    0    0
      72       24        2  0.52000000   13.48994   10.15516    7.41072    0    0    0
      73       25        1 -1.04000000    0.27756   13.11371    8.25026    0    0    0
      74       25        2  0.52000000   -0.51775   12.61783    8.44372    0    0    0
      75       25        2  0.52000000    0.24019   13.26846    7.30602    0    0    0
      76       26        1 -1.04000000   15.03921   17.38111   10.07630    0    0    0
      77       26        2  0.52000000   15.13363   16.64925   10.68565    0    0    0
      78       26        2  0.52000000   14.82716   16.96964    9.23805    0    0    0
      79       27        1 -1.04000000    4.80538   18.79624   13.72943    0    0    0
      80       27        2  0.52000000    4.52740   18.99821   14.62262    0    0    0
      81       27        2  0.52000000    5.66721   19.20556   13.64795    0    0    0
      82       28        1 -1.04000000   19.14840   11.14490   12.33103    0    0    0
      83       28        2  0.52000000   19.60378   10.99022   11.50366    0    0    0
      84       28        2  0.52000000   18.24782   10.86488   12.16531    0    0    0
      85       29        1 -1.04000000   16.38030    2.92637    3.05050    0    0    0
      86       29        2  0.52000000   15.86201    2.80980    2.25449    0    0    0
      87       29        2  0.52000000   15.75769    3.26383    3.69501    0    0    0
      88       30        1 -1.04000000    4.32995    2.09858    7.18444    0    0    0
      89       30        2  0.52000000    4.18898    2.01412    6.24165    0    0    0
      90       30        2  0.52000000    3.48107    1.88731    7.57391    0    0    0
      91       31        1 -1.04000000   10.30718   18.03004    5.23946    0    0    0
      92       31        2  0.52000000   10.30431   18.06804    4.28322    0    0    0
      93       31        2  0.52000000    9.38851   17.90192    5.47731    0    0    0
      94       32        1 -1.04000000    8.20281   12.23812    1.23403    0    0    0
      95       32        2  0.52000000    8.29831   12.12555    0.28848    0    0    0
      96       32        2  0.52000000    7.49888   11.63634    1.47748    0    0    0
      97       33        1 -1.04000000   19.23809    3.84323    7.73291    0    0    0
      98       33        2  0.52000000   19.46625    4.16019    8.60660    0    0    0
      99       33        2  0.52000000   18.29566    3.99658    7.66050    0    0    0
     100       34        1 -1.04000000    3.71445   14.85261    9.77788    0    0    0
     101       34        2  0.52000000    4.53246   14.42894   10.03714    0    0    0
     102       34        2  0.52000000    3.75309   15.71846   10.18498    0    0    0
     103       35        1 -1.04000000    2.80277   10.68491   19.12009    0    0    0
     104       35        2  0.52000000    3.44491   11.19634   19.61197    0    0    0
     105       35        2  0.52000000    2.75232   11.11875   18.26794    0    0    0
     106       36        1 -1.04000000    1.38610    3.05902    5.00685    0    0    0
     107       36        2  0.52000000    0.81657    2.99832    4.24016    0    0    0
     108       36        2  0.52000000    0.79733    2.94266    5.75299    0    0    0
     109       37        1 -1.04000000   15.12019    9.32981    1.17141    0    0    0
     110       37        2  0.52000000   14.82223    9.21367    0.26942    0    0    0
     111       37        2  0.52000000   15.05759    8.45652    1.55917    0    0    0
     112       38        1 -1.04000000    5.80705    1.33961   12.00599    0    0    0
     113       38        2  0.52000000    5.52600    0.50003   12.36928    0    0    0
     114       38        2  0.52000000    6.66695    1.16036   11.62473    0    0    0
     115       39        1 -1.04000000    0.77896    9.78918   -0.24351    0    0    0
     116       39        2  0.52000000    0.78712    9.76068    0.71303    0    0    0
     117       39        2  0.52000000    1.43392   10.45014   -0.46952    0    0    0
     118       40        1 -1.04000000   11.24258   15.71541   10.11299    0    0    0
     119       40        2  0.52000000   10.43065   15.62887    9.61386    0    0    0
     120       40        2  0.52000000   11.32677   16.65572   10.27315    0    0    0
     121       41        1 -1.04000000   18.17035    2.69043   18.83343    0    0    0
     122       41        2  0.52000000   18.08791    3.57514   18.47799    0    0    0
     123       41        2  0.52000000   17.74174    2.73443   19.68858    0    0    0
     124       42        1 -1.04000000    5.85651   18.03892   11.36124    0    0    0
     125       42        2  0.52000000    5.37678   18.07294   10.53387    0    0    0
     126       42        2  0.52000000    6.76671   17.88814   11.10489    0    0    0
     127       43        1 -1.04000000   -0.06273    8.33104   11.80231    0    0    0
     128       43        2  0.52000000    0.49646    7.59612   11.55122    0    0    0
     129       43        2  0.52000000   -0.43374    8.07285   12.64648    0    0    0
     130       44        1 -1.04000000   13.76502   10.13534   19.28120    0    0    0
     131       44        2  0.52000000   13.58917   10.09251   18.34147    0    0    0
     132       44        2  0.52000000   14.64581    9.77215   19.37734    0    0    0
     133       45        1 -1.04000000   14.24598   13.76336   11.81000    0    0    0
     134       45        2  0.52000000   13.32660   13.93623   11.60825    0    0    0
     135       45        2  0.52000000   14.42743   14.30041   12.58174    0    0    0
     136       46        1 -1.04000000    8.73355   18.14824    9.75581    0    0    0
     137       46        2  0.52000000    8.78905   18.26674   10.70382    0    0    0
     138       46        2  0.52000000    9.47740   17.58503    9.54038    0    0    0
     139       47        1 -1.04000000   15.07712    8.94538    2.62096    0    0    0
     140       47        2  0.52000000   15.56585    8.60975    3.37219    0    0    0
     141       47        2  0.52000000   14.35703    9.44487    3.00685    0    0    0
     142       48        1 -1.04000000    7.09286   15.62381   18.95042    0    0    0
     143       48        2  0.52000000    6.65639   16.02505   19.70165    0    0    0
     144       48        2  0.52000000    7.25075   16.35114   18.34794    0    0    0
     145       49        1 -1.04000000   19.22604   17.30384    2.90414    0    0    0
     146       49        2  0.52000000   18.36659   17.07830    2.54870    0    0    0
     147       49        2  0.52000000   19.40737   16.61786    3.54716    0    0    0
     148       50        1 -1.04000000    6.81683   12.14763   17.31186    0    0    0
     149       50        2  0.52000000    7.75990   12.08912   17.16006    0    0    0
     150       50        2  0.52000000    6.42328   11.76325   16.52809    0    0    0
     151       51        1 -1.04000000    6.07317   15.82229   10.65990    0    0    0
     152       51        2  0.52000000    6.64883   15.88881   11.42150    0    0    0
     153       51        2  0.52000000    5.27801   16.28890   10.91860    0    0    0
     154       52        1 -1.04000000   17.24834   15.05100   18.70280    0    0    0
     155       52        2  0.52000000   16.30956   15.23613   18.71974    0    0    0
     156       52        2  0.52000000   17.44210   14.71287   19.57747    0    0    0
     157       53        1 -1.04000000    7.96046    3.62819   18.88688    0    0    0
     158       53        2  0.52000000    7.38823    4.12686   19.46973    0    0    0
     159       53        2  0.52000000    8.65131    4.24494   18.64339    0    0    0
     160       54        1 -1.04000000    9.77638   12.68014   14.01699    0    0    0
     161       54        2  0.52000000   10.38194   12.93490   13.32111    0    0    0
     162       54        2  0.52000000    9.84167   13.38495   14.66190    0    0    0
     163       55        1 -1.04000000   16.82419    1.07466    2.65924    0    0    0
     164       55        2  0.52000000   17.40908    0.34689    2.86923    0    0    0
     165       55        2  0.52000000   16.76673    1.57845    3.47153    0    0    0
     166       56        1 -1.04000000    6.83879    4.73001    7.23177    0    0    0
     167       56        2  0.52000000    7.68774    4.69242    6.79165    0    0    0
     168       56        2  0.52000000    6.47347    5.57757    6.97658    0    0    0
     169       57        1 -1.04000000    5.15164   -0.12211   20.33867    0    0    0
     170       57        2  0.52000000    5.19597   -0.55621   19.48694    0    0    0
     171       57        2  0.52000000    4.65238    0.67832   20.17439    0    0    0
     172       58        1 -1.04000000   16.17548   17.06249    0.34337    0    0    0
     173       58        2  0.52000000   16.24731   16.29161   -0.21915    0    0    0
     174       58        2  0.52000000   15.57721   17.64590   -0.12422    0    0    0
     175       59        1 -1.04000000   18.96948    5.10535   14.62507    0    0    0
     176       59        2  0.52000000   18.39545    4.51850   15.11695    0    0    0
     177       59        2  0.52000000   19.63508    5.37615   15.25798    0    0    0
     178       60        1 -1.04000000   12.15051   13.17845    9.31322    0    0    0
     179       60        2  0.52000000   12.50166   13.16290    8.42311    0    0    0
     180       60        2  0.52000000   11.34783   12.65866    9.26367    0    0    0
     181       61        1 -1.04000000   -0.06333    6.25010    7.29332    0    0    0
     182       61        2  0.52000000   -0.70759    5.87941    6.69052    0    0    0
     183       61        2  0.52000000    0.77093    5.87048    7.01615    0    0    0
     184       62        1 -1.04000000   17.04767   11.77989   14.68081    0    0    0
     185       62        2  0.52000000   17.23591   12.71269   14.78224    0    0    0
     186       62        2  0.52000000   16.71642   11.50742   15.53694    0    0    0
     187       63        1 -1.04000000   -0.09404    8.65433    5.84421    0    0    0
     188       63        2  0.52000000   -0.05269    9.50311    5.40409    0    0    0
     189       63        2  0.52000000    0.14673    8.84256    6.75170    0    0    0
     190       64        1 -1.04000000    9.23240    0.18750    5.25187    0    0    0
     191       64        2  0.52000000    8.30364    0.34515    5.08336    0    0    0
     192       64        2  0.52000000    9.46397   -0.53265    4.66477    0    0    0
     193       65        1 -1.04000000    2.24140    5.84997    9.73201    0    0    0
     194       65        2  0.52000000    2.36768    5.88430   10.68002    0    0    0
     195       65        2  0.52000000    1.39092    6.26573    9.58796    0    0    0
     196       66        1 -1.04000000    3.72786   17.97354   16.72099    0    0    0
     197       66        2  0.52000000    4.15125   18.76508   17.05274    0    0    0
     198       66        2  0.52000000    4.12089   17.26138   17.22627    0    0    0
     199       67        1 -1.04000000   10.81695   11.18057   17.70591    0    0    0
     200       67        2  0.52000000   11.65852   10.72563   17.68050    0    0    0
     201       67        2  0.52000000   10.52453   11.09380   18.61359    0    0    0
     202       68        1 -1.04000000   11.85438   13.15165    6.67076    0    0    0
     203       68        2  0.52000000   11.67292   12.29179    7.04966    0    0    0
     204       68        2  0.52000000   12.47270   13.55656    7.27958    0    0    0
     205       69        1 -1.04000000    4.91496    9.34238    5.83224    0    0    0
     206       69        2  0.52000000    5.20329    9.18651    6.73136    0    0    0
     207       69        2  0.52000000    4.88175    8.47110    5.43640    0    0    0
     208       70        1 -1.04000000    8.01320   15.36990   11.87511    0    0    0
     209       70        2  0.52000000    8.32241   14.58688   11.42001    0    0    0
     210       70        2  0.52000000    7.66440   15.04321   12.70489    0    0    0
     211       71        1 -1.04000000   16.07278   11.96263    4.61802    0    0    0
     212       71        2  0.52000000   15.21997   12.00040    5.05061    0    0    0
     213       71        2  0.52000000   16.70724   12.03697    5.33137    0    0    0
     214       72        1 -1.04000000    9.71869   17.74378   15.91158    0    0    0
     215       72        2  0.52000000   10.22894   18.28426   15.30878    0    0    0
     216       72        2  0.52000000   10.05237   17.97195   16.77964    0    0    0
     217       73        1 -1.04000000    4.68058    1.99311   16.22477    0    0    0
     218       73        2  0.52000000    4.77295    1.67039   15.32858    0    0    0
     219       73        2  0.52000000    5.54648    2.33650   16.44665    0    0    0
     220       74        1 -1.04000000    0.00403    6.65474    2.18271    0    0    0
     221       74        2  0.52000000   -0.01411    6.81807    1.23993    0    0    0
     222       74        2  0.52000000    0.01009    7.52718    2.57736    0    0    0
     223       75        1 -1.04000000   18.62156   19.09432   13.02206    0    0    0
     224       75        2  0.52000000   19.01719   18.37010   12.53747    0    0    0
     225       75        2  0.52000000   19.36125   19.53558   13.44048    0    0    0
     226       76        1 -1.04000000    2.85943   16.99538   18.36445    0    0    0
     227       76        2  0.52000000    2.38113   17.17214   17.55461    0    0    0
     228       76        2  0.52000000    3.75944   16.83247   18.08094    0    0    0
     229       77        1 -1.04000000   17.68927   11.95234    2.76810    0    0    0
     230       77        2  0.52000000   18.61274   11.95234    2.51701    0    0    0
     231       77        2  0.52000000   17.69799   12.09533    3.71489    0    0    0
     232       78        1 -1.04000000    2.91468    2.74343    0.71805    0    0    0
     233       78        2  0.52000000    2.81749    3.69515    0.69264    0    0    0
     234       78        2  0.52000000    3.26783    2.56142    1.58931    0    0    0
     235       79        1 -1.04000000   19.38554   10.94607   18.03241    0    0    0
     236       79        2  0.52000000   18.90231   11.27792   17.27597    0    0    0
     237       79        2  0.52000000   18.71215   10.77601   18.69162    0    0    0
     238       80        1 -1.04000000   15.17303    0.28090   12.79081    0    0    0
     239       80        2  0.52000000   15.40010   -0.01754   13.67128    0    0    0
     240       80        2  0.52000000   14.42687   -0.26336   12.53791    0    0    0
     241       81        1 -1.04000000   13.24706   16.30138   11.97294    0    0    0
     242       81        2  0.52000000   13.20254   15.52844   11.41042    0    0    0
     243       81        2  0.52000000   12.55039   16.17019   12.61665    0    0    0
     244       82        1 -1.04000000   13.01767    0.61167    8.96139    0    0    0
     245       82        2  0.52000000   13.36726    1.14568    9.67446    0    0    0
     246       82        2  0.52000000   12.61506    1.24265    8.36415    0    0    0
     247       83        1 -1.04000000    7.30819    7.02010   16.23920    0    0    0
     248       83        2  0.52000000    7.28716    7.18308   15.29642    0    0    0
     249       83        2  0.52000000    6.40465    6.79682   16.46438    0    0    0
     250       84        1 -1.04000000   10.62055    4.08671    3.96686    0    0    0
     251       84        2  0.52000000   11.32387    4.29138    3.35099    0    0    0
     252       84        2  0.52000000   11.05558    3.62192    4.68215    0    0    0
     253       85        1 -1.04000000    2.70732    3.95392    5.25460    0    0    0
     254       85        2  0.52000000    2.68204    3.83410    4.30546    0    0    0
     255       85        2  0.52000000    3.61064    4.21198    5.43994    0    0    0
     256       86        1 -1.04000000    9.97775   10.65739    2.81365    0    0    0
     257       86        2  0.52000000   10.25980   11.49998    2.45822    0    0    0
     258       86        2  0.52000000    9.76246   10.84263    3.72813    0    0    0
     259       87        1 -1.04000000    3.29338    2.79172   17.84784    0    0    0
     260       87        2  0.52000000    3.09013    3.71449   17.69604    0    0    0
     261       87        2  0.52000000    2.61649    2.49379   18.45611    0    0    0
     262       88        1 -1.04000000    1.33780    2.90188    1.16989    0    0    0
     263       88        2  0.52000000    0.46456    2.56150    1.36334    0    0    0
     264       88        2  0.52000000    1.19764    3.53663    0.46677    0    0    0
     265       89        1 -1.04000000   16.29795    4.81340   13.17032    0    0    0
     266       89        2  0.52000000   16.12248    4.90428   12.23394    0    0    0
     267       89        2  0.52000000   15.57957    5.28232   13.59573    0    0    0
     268       90        1 -1.04000000    8.77250    4.28436   13.14136    0    0    0
     269       90        2  0.52000000    8.70901    3.85264   12.28964    0    0    0
     270       90        2  0.52000000    9.51850    3.86300   13.56900    0    0    0
     271       91        1 -1.04000000   15.80730    8.19509    9.27823    0    0    0
     272       91        2  0.52000000   16.63979    8.42938    8.86846    0    0    0
     273       91        2  0.52000000   15.55290    7.37554    8.85332    0    0    0
     274       92        1 -1.04000000   14.09698   13.79892    0.67943    0    0    0
     275       92        2  0.52000000   13.22168   14.06206    0.96306    0    0    0
     276       92        2  0.52000000   14.68134   14.13902    1.35751    0    0    0
     277       93        1 -1.04000000   12.97774    7.63373   12.13398    0    0    0
     278       93        2  0.52000000   12.69252    7.96397   11.28225    0    0    0
     279       93        2  0.52000000   13.32974    8.40231   12.58377    0    0    0
     280       94        1 -1.04000000    7.71042   -0.09025    1.24618    0    0    0
     281       94        2  0.52000000    7.74861   -0.25009    0.30339    0    0    0
     282       94        2  0.52000000    8.54097    0.34034    1.45043    0    0    0
     283       95        1 -1.04000000   12.27924   19.23426    9.85946    0    0    0
     284       95        2  0.52000000   11.59209   19.45417   10.48820    0    0    0
     285       95        2  0.52000000   12.12867   18.31157    9.65234    0    0    0
     286       96        1 -1.04000000    5.10903   13.00603   13.37507    0    0    0
     287       96        2  0.52000000    5.15652   13.72034   12.73997    0    0    0
     288       96        2  0.52000000    4.73445   12.27363   12.88495    0    0    0
     289       97        1 -1.04000000   17.84309    5.01934   10.35722    0    0    0
     290       97        2  0.52000000   18.61209    4.52075   10.08170    0    0    0
     291       97        2  0.52000000   17.54482    5.45991    9.56108    0    0    0
     292       98        1 -1.04000000    2.80115    6.69854   13.85106    0    0    0
     293       98        2  0.52000000    3.63866    6.67630   14.31357    0    0    0
     294       98        2  0.52000000    2.56019    7.62516   13.83536    0    0    0
     295       99        1 -1.04000000    1.82900   11.73874    9.76526    0    0    0
     296       99        2  0.52000000    2.76180   11.82982    9.95872    0    0    0
     297       99        2  0.52000000    1.40920   12.43144   10.27602    0    0    0
     298      100        1 -1.04000000   -0.22119   17.32135    7.97972    0    0    0
     299      100        2  0.52000000    0.42576   17.01482    7.34463    0    0    0
     300      100        2  0.52000000   -0.20457   16.66383    8.67565    0    0    0
     301      101        1 -1.04000000    2.75612    4.26742   13.14700    0    0    0
     302      101        2  0.52000000    2.78727    3.93319   12.25081    0    0    0
     303      101        2  0.52000000    3.45661    3.79939   13.60219    0    0    0
     304      102        1 -1.04000000   18.89179   12.26173    6.73095    0    0    0
     305      102        2  0.52000000   19.66598   11.69924    6.72248    0    0    0
     306      102        2  0.52000000   18.44223   12.03903    7.54657    0    0    0
     307      103        1 -1.04000000   18.14400    6.34063    2.12584    0    0    0
     308      103        2  0.52000000   17.59267    6.18547    1.35915    0    0    0
     309      103        2  0.52000000   18.26333    5.47390    2.51501    0    0    0
     310      104        1 -1.04000000   15.75564    6.16862    3.25389    0    0    0
     311      104        2  0.52000000   15.70067    6.17106    2.29847    0    0    0
     312      104        2  0.52000000   16.54369    5.66032    3.44764    0    0    0
     313      105        1 -1.04000000    7.67819   19.11224    0.19090    0    0    0
     314      105        2  0.52000000    7.87806   19.22724   -0.73790    0    0    0
     315      105        2  0.52000000    8.44374   18.66052    0.54700    0    0    0
     316      106        1 -1.04000000   -0.05673    1.62867    7.89276    0    0    0
     317      106        2  0.52000000   -0.55191    2.39987    7.61723    0    0    0
     318      106        2  0.52000000    0.60864    1.97146    8.49001    0    0    0
     319      107        1 -1.04000000    8.28197    6.14101    2.76932    0    0    0
     320      107        2  0.52000000    8.35830    5.85529    3.67948    0    0    0
     321      107        2  0.52000000    7.35974    6.00370    2.55121    0    0    0
     322      108        1 -1.04000000   12.97740    1.61015   17.98967    0    0    0
     323      108        2  0.52000000   13.25969    2.16115   18.71944    0    0    0
     324      108        2  0.52000000   12.76291    2.22871   17.29088    0    0    0
     325      109        1 -1.04000000    0.22920   14.91715   11.69471    0    0    0
     326      109        2  0.52000000   -0.46278   15.57626   11.74551    0    0    0
     327      109        2  0.52000000    0.23358   14.50660   12.55979    0    0    0
     328      110        1 -1.04000000    7.89814   17.32129    8.80252    0    0    0
     329      110        2  0.52000000    8.06922   17.24023    9.74061    0    0    0
     330      110        2  0.52000000    8.03264   16.43847    8.45687    0    0    0
     331      111        1 -1.04000000    1.16395    8.64862   16.95254    0    0    0
     332      111        2  0.52000000    1.41295    9.33167   17.57487    0    0    0
     333      111        2  0.52000000    0.42310    9.01971   16.47259    0    0    0
     334      112        1 -1.04000000   17.71231    9.12260    6.23410    0    0    0
     335      112        2  0.52000000   17.63365    8.61878    5.42427    0    0    0
     336      112        2  0.52000000   18.65404    9.25861    6.34163    0    0    0
     337      113        1 -1.04000000    0.72171   17.97164    5.27268    0    0    0
     338      113        2  0.52000000    1.12967   18.76792    4.93303    0    0    0