Created by /global/cfs/cdirs/m5056/rsb/codes/ATLAS-toolkit/scripts/createLammpsInput.pl on Thu Apr  9 14:48:00 2026

         870 atoms
         560 bonds
         270 angles

           6 atom types
           2 bond types
           1 angle types

		   0.000000  20.248960 xlo xhi
		   0.000000  20.248960 ylo yhi
		   0.000000  20.248960 zlo zhi

Masses

    1 1.5999E+01 # OW     
    2 1.0080E+00 # HW     
    3 6.9410E+00 # Li     
    4 3.9948E+01 # K_     
    5 1.5999E+01 # O_3    
    6 1.0080E+00 # H_     

Atoms

       1        1        1 -1.04000000    5.04331    2.84112   13.64576    0    0    0
       2        1        2  0.52000000    4.22810    2.99440   14.12303    0    0    0
       3        1        2  0.52000000    5.72860    3.16448   14.23121    0    0    0
       4        2        1 -1.04000000   13.01334   10.38256    3.07791    0    0    0
       5        2        2  0.52000000   13.18457    9.94893    2.24215    0    0    0
       6        2        2  0.52000000   12.80209    9.66850    3.67993    0    0    0
       7        3        1 -1.04000000    8.24390   10.26043   18.84096    0    0    0
       8        3        2  0.52000000    7.56534    9.74886   18.40083    0    0    0
       9        3        2  0.52000000    8.19076    9.99072   19.75821    0    0    0
      10        4        1 -1.04000000    3.73355   12.79142   18.19519    0    0    0
      11        4        2  0.52000000    3.98981   12.70184   17.27750    0    0    0
      12        4        2  0.52000000    4.27665   13.50674   18.52730    0    0    0
      13        5        1 -1.04000000    8.69425   16.20075   17.13719    0    0    0
      14        5        2  0.52000000    8.69119   15.50780   16.47715    0    0    0
      15        5        2  0.52000000    9.61456   16.29145   17.38566    0    0    0
      16        6        1 -1.04000000   -0.22145    7.27584    4.83425    0    0    0
      17        6        2  0.52000000    0.68966    7.34855    5.11788    0    0    0
      18        6        2  0.52000000   -0.46820    6.37561    5.04787    0    0    0
      19        7        1 -1.04000000    1.87573   14.73171   13.74470    0    0    0
      20        7        2  0.52000000    1.77889   14.72312   14.69675    0    0    0
      21        7        2  0.52000000    2.34538   15.54517   13.55856    0    0    0
      22        8        1 -1.04000000   16.06936    4.73453   17.72194    0    0    0
      23        8        2  0.52000000   15.59711    4.61060   18.54503    0    0    0
      24        8        2  0.52000000   16.33353    5.65487   17.73303    0    0    0
      25        9        1 -1.04000000    5.38732   18.98787    5.04940    0    0    0
      26        9        2  0.52000000    4.88590   18.71107    4.28271    0    0    0
      27        9        2  0.52000000    4.72678   19.30106    5.66789    0    0    0
      28       10        1 -1.04000000    2.86848    3.73368    3.25372    0    0    0
      29       10        2  0.52000000    2.87504    3.67904    2.29831    0    0    0
      30       10        2  0.52000000    3.25648    4.58729    3.44797    0    0    0
      31       11        1 -1.04000000    4.90943    8.22876   16.69658    0    0    0
      32       11        2  0.52000000    5.04029    7.28075   16.69658    0    0    0
      33       11        2  0.52000000    5.05029    8.49048   17.60685    0    0    0
      34       12        1 -1.04000000    7.75246   18.30153    0.97984    0    0    0
      35       12        2  0.52000000    7.90751   17.62614    0.31980    0    0    0
      36       12        2  0.52000000    8.34003   18.07233    1.70036    0    0    0
      37       13        1 -1.04000000   18.66288    8.03794    6.19369    0    0    0
      38       13        2  0.52000000   18.78575    7.84280    5.26489    0    0    0
      39       13        2  0.52000000   19.55136    8.11926    6.54142    0    0    0
      40       14        1 -1.04000000   19.30102   13.75698   13.05416    0    0    0
      41       14        2  0.52000000   18.86327   14.30165   13.70804    0    0    0
      42       14        2  0.52000000   18.83571   13.94137   12.23781    0    0    0
      43       15        1 -1.04000000    3.90021   19.28118   17.25215    0    0    0
      44       15        2  0.52000000    3.85180   19.30735   16.29674    0    0    0
      45       15        2  0.52000000    4.24798   18.41147   17.45111    0    0    0
      46       16        1 -1.04000000   10.05214    7.80450    5.33416    0    0    0
      47       16        2  0.52000000   10.72219    8.10046    4.71829    0    0    0
      48       16        2  0.52000000    9.22567    8.09504    4.94754    0    0    0
      49       17        1 -1.04000000   16.31710   15.91906   16.78670    0    0    0
      50       17        2  0.52000000   16.28376   16.27687   17.67367    0    0    0
      51       17        2  0.52000000   15.39914   15.80406   16.53963    0    0    0
      52       18        1 -1.04000000   10.25373    8.70514   11.03584    0    0    0
      53       18        2  0.52000000    9.47331    8.87344   11.56355    0    0    0
      54       18        2  0.52000000   10.27296    9.42141   10.40061    0    0    0
      55       19        1 -1.04000000   11.64301   13.11235    8.11199    0    0    0
      56       19        2  0.52000000   11.90724   12.76508    7.26026    0    0    0
      57       19        2  0.52000000   12.44974   13.12257    8.62775    0    0    0
      58       20        1 -1.04000000   18.24689    6.21000    0.21806    0    0    0
      59       20        2  0.52000000   18.37569    5.90001   -0.67813    0    0    0
      60       20        2  0.52000000   17.37743    5.89000    0.46007    0    0    0
      61       21        1 -1.04000000    8.83045    1.68143    7.85044    0    0    0
      62       21        2  0.52000000    8.75437    2.58438    7.54265    0    0    0
      63       21        2  0.52000000    9.41517    1.73419    8.60691    0    0    0
      64       22        1 -1.04000000   15.27564   14.72320    7.99729    0    0    0
      65       22        2  0.52000000   15.19243   15.47244    7.40774    0    0    0
      66       22        2  0.52000000   14.53193   14.80435    8.59498    0    0    0
      67       23        1 -1.04000000   10.26931    3.73561   12.10084    0    0    0
      68       23        2  0.52000000   10.06823    4.06132   11.22373    0    0    0
      69       23        2  0.52000000    9.66246    4.20307   12.67542    0    0    0
      70       24        1 -1.04000000    1.92678    7.63896    0.87004    0    0    0
      71       24        2  0.52000000    2.71936    7.95601    1.30263    0    0    0
      72       24        2  0.52000000    1.35386    8.40503    0.82733    0    0    0
      73       25        1 -1.04000000    0.71277    4.20450   16.16817    0    0    0
      74       25        2  0.52000000    0.77465    3.92357   15.25543    0    0    0
      75       25        2  0.52000000    1.51257    3.87193   16.57640    0    0    0
      76       26        1 -1.04000000   18.79171    5.70061   17.86007    0    0    0
      77       26        2  0.52000000   18.91254    5.95273   18.77532    0    0    0
      78       26        2  0.52000000   19.29575    6.34667   17.36461    0    0    0
      79       27        1 -1.04000000    9.97258   17.61033    9.00264    0    0    0
      80       27        2  0.52000000    9.50377   18.22647    8.44012    0    0    0
      81       27        2  0.52000000   10.52365   18.16320    9.55725    0    0    0
      82       28        1 -1.04000000    0.06898   15.30955    5.22809    0    0    0
      83       28        2  0.52000000   -0.35309   14.48571    5.47100    0    0    0
      84       28        2  0.52000000    0.28412   15.20474    4.30091    0    0    0
      85       29        1 -1.04000000   17.06343   13.67901   12.21341    0    0    0
      86       29        2  0.52000000   17.33629   13.84580   11.31142    0    0    0
      87       29        2  0.52000000   16.60029   14.47519   12.47517    0    0    0
      88       30        1 -1.04000000   19.15865    9.15711    8.67945    0    0    0
      89       30        2  0.52000000   19.24974    9.45531    9.58424    0    0    0
      90       30        2  0.52000000   18.59161    8.38759    8.73631    0    0    0
      91       31        1 -1.04000000   11.65449    2.83071    2.06757    0    0    0
      92       31        2  0.52000000   12.47922    2.68319    2.53008    0    0    0
      93       31        2  0.52000000   11.86629    3.48610    1.40235    0    0    0
      94       32        1 -1.04000000    8.67129    9.17127   14.87662    0    0    0
      95       32        2  0.52000000    8.76755    8.30465   15.27102    0    0    0
      96       32        2  0.52000000    9.56116    9.52409   14.85235    0    0    0
      97       33        1 -1.04000000    2.93835   17.67553   10.79139    0    0    0
      98       33        2  0.52000000    3.34675   18.49037   10.49969    0    0    0
      99       33        2  0.52000000    2.71491   17.83411   11.70892    0    0    0
     100       34        1 -1.04000000    0.18893   15.77954   17.26135    0    0    0
     101       34        2  0.52000000    0.24272   15.73182   16.30706    0    0    0
     102       34        2  0.52000000   -0.43164   16.48865   17.43159    0    0    0
     103       35        1 -1.04000000    0.00416   12.39062   12.00130    0    0    0
     104       35        2  0.52000000    0.24145   11.80494   11.28260    0    0    0
     105       35        2  0.52000000   -0.24560   11.80444   12.71610    0    0    0
     106       36        1 -1.04000000    5.98239   12.05046   12.61303    0    0    0
     107       36        2  0.52000000    5.43577   11.48165   13.15480    0    0    0
     108       36        2  0.52000000    6.58184   12.46789   13.23217    0    0    0
     109       37        1 -1.04000000    1.11187   -0.36674   17.92523    0    0    0
     110       37        2  0.52000000    0.30148   -0.07537   18.34264    0    0    0
     111       37        2  0.52000000    1.58664    0.44211   17.73214    0    0    0
     112       38        1 -1.04000000    7.05828    3.12094   19.36685    0    0    0
     113       38        2  0.52000000    7.30275    3.56843   18.55702    0    0    0
     114       38        2  0.52000000    6.63897    2.31063   19.07613    0    0    0
     115       39        1 -1.04000000   13.28892    0.23686    5.11412    0    0    0
     116       39        2  0.52000000   13.36353   -0.64855    4.75868    0    0    0
     117       39        2  0.52000000   12.34755    0.41169    5.12720    0    0    0
     118       40        1 -1.04000000   13.02687   19.30751   17.76059    0    0    0
     119       40        2  0.52000000   12.24224   18.80860   17.98707    0    0    0
     120       40        2  0.52000000   13.73090   18.88389   18.25234    0    0    0
     121       41        1 -1.04000000   15.68398    0.91486   18.21327    0    0    0
     122       41        2  0.52000000   16.14192    1.75309   18.15401    0    0    0
     123       41        2  0.52000000   16.17410    0.33205   17.63272    0    0    0
     124       42        1 -1.04000000   18.78073    2.27247    3.17401    0    0    0
     125       42        2  0.52000000   18.73121    1.97276    2.26650    0    0    0
     126       42        2  0.52000000   19.48806    1.75477    3.55949    0    0    0
     127       43        1 -1.04000000    6.90331   17.02424   -0.37771    0    0    0
     128       43        2  0.52000000    6.85228   16.25672    0.19164    0    0    0
     129       43        2  0.52000000    7.24441   17.71903    0.18607    0    0    0
     130       44        1 -1.04000000   -0.00568    0.38110   11.08565    0    0    0
     131       44        2  0.52000000    0.45573   -0.05067   10.36695    0    0    0
     132       44        2  0.52000000   -0.45005   -0.33042   11.54740    0    0    0
     133       45        1 -1.04000000    5.80395   16.08218   17.32774    0    0    0
     134       45        2  0.52000000    6.00776   16.67359   16.60348    0    0    0
     135       45        2  0.52000000    6.18829   15.24423   17.06878    0    0    0
     136       46        1 -1.04000000   17.33841   19.07219    1.81870    0    0    0
     137       46        2  0.52000000   17.20062   18.87714    2.74543    0    0    0
     138       46        2  0.52000000   16.46097   19.05067    1.43587    0    0    0
     139       47        1 -1.04000000    0.86695    9.67926    3.82105    0    0    0
     140       47        2  0.52000000    0.44595   10.17552    4.52271    0    0    0
     141       47        2  0.52000000    1.68710   10.14523    3.65624    0    0    0
     142       48        1 -1.04000000   12.74245    4.16965   10.23977    0    0    0
     143       48        2  0.52000000   12.73854    4.16804    9.28278    0    0    0
     144       48        2  0.52000000   13.51901    3.66231   10.47745    0    0    0
     145       49        1 -1.04000000   10.97994   18.08739    3.61979    0    0    0
     146       49        2  0.52000000   11.57615   18.45184    4.27367    0    0    0
     147       49        2  0.52000000   10.44390   17.46077    4.10655    0    0    0
     148       50        1 -1.04000000    5.63088   17.93366   19.10933    0    0    0
     149       50        2  0.52000000    6.06880   17.63292   18.31332    0    0    0
     150       50        2  0.52000000    6.30031   18.43342   19.57734    0    0    0
     151       51        1 -1.04000000   13.99901    6.36540   15.86185    0    0    0
     152       51        2  0.52000000   14.33951    6.05790   16.70170    0    0    0
     153       51        2  0.52000000   13.66148    5.57670   15.43645    0    0    0
     154       52        1 -1.04000000   17.99808   10.79470    0.66766    0    0    0
     155       52        2  0.52000000   17.24536   11.14322    1.14493    0    0    0
     156       52        2  0.52000000   18.75656   11.06208    1.18741    0    0    0
     157       53        1 -1.04000000    2.73680    1.16567    8.23639    0    0    0
     158       53        2  0.52000000    2.66578    1.01748    7.29360    0    0    0
     159       53        2  0.52000000    3.59742    0.81685    8.47001    0    0    0
     160       54        1 -1.04000000   13.62559   14.10869   14.97534    0    0    0
     161       54        2  0.52000000   14.04099   13.59183   15.66537    0    0    0
     162       54        2  0.52000000   14.33342   14.29948   14.35929    0    0    0
     163       55        1 -1.04000000    6.14176   12.81176   -0.31156    0    0    0
     164       55        2  0.52000000    6.62200   13.11119    0.46017    0    0    0
     165       55        2  0.52000000    5.23623   13.07706   -0.14861    0    0    0
     166       56        1 -1.04000000    7.28221   11.94785   15.73497    0    0    0
     167       56        2  0.52000000    7.36285   12.32996   16.60866    0    0    0
     168       56        2  0.52000000    6.35494   11.72219   15.65637    0    0    0
     169       57        1 -1.04000000    2.01129   17.68443    7.77002    0    0    0
     170       57        2  0.52000000    2.02095   17.71246    8.72656    0    0    0
     171       57        2  0.52000000    1.96775   18.60311    7.50343    0    0    0
     172       58        1 -1.04000000    6.74193   -0.25562    3.85626    0    0    0
     173       58        2  0.52000000    7.09959   -0.22069    4.74322    0    0    0
     174       58        2  0.52000000    7.15848    0.47631    3.40052    0    0    0
     175       59        1 -1.04000000    3.94412   14.13115   14.36370    0    0    0
     176       59        2  0.52000000    3.36801   14.23947   13.60726    0    0    0
     177       59        2  0.52000000    4.68787   13.62939   14.02904    0    0    0
     178       60        1 -1.04000000   17.12440    2.73150   10.74498    0    0    0
     179       60        2  0.52000000   17.55374    3.55157   10.98789    0    0    0
     180       60        2  0.52000000   16.32186    2.71693   11.26714    0    0    0
     181       61        1 -1.04000000   13.10020   18.28178   15.25132    0    0    0
     182       61        2  0.52000000   13.20584   18.28084   14.30017    0    0    0
     183       61        2  0.52000000   12.69396   17.43738   15.44851    0    0    0
     184       62        1 -1.04000000   11.62035   13.90944    2.98379    0    0    0
     185       62        2  0.52000000   12.24016   13.71107    3.68546    0    0    0
     186       62        2  0.52000000   12.13950   14.37949    2.33075    0    0    0
     187       63        1 -1.04000000    2.15699   19.70966   15.79105    0    0    0
     188       63        2  0.52000000    1.63743   19.64028   16.59173    0    0    0
     189       63        2  0.52000000    2.20558   20.65006   15.61721    0    0    0
     190       64        1 -1.04000000   10.70297    3.01583    6.74677    0    0    0
     191       64        2  0.52000000   10.68504    2.70455    7.65155    0    0    0
     192       64        2  0.52000000   11.61198    3.27962    6.60168    0    0    0
     193       65        1 -1.04000000    0.09023   15.04653    9.62278    0    0    0
     194       65        2  0.52000000   -0.57095   15.51803   10.12911    0    0    0
     195       65        2  0.52000000    0.48071   14.43545   10.24811    0    0    0
     196       66        1 -1.04000000    6.33914    5.82146    5.92445    0    0    0
     197       66        2  0.52000000    5.50469    5.71004    5.46934    0    0    0
     198       66        2  0.52000000    6.15617    6.46849    6.60621    0    0    0
     199       67        1 -1.04000000    5.92545    6.75616   18.70405    0    0    0
     200       67        2  0.52000000    5.44484    6.84212   19.52714    0    0    0
     201       67        2  0.52000000    6.62971    7.40172   18.76881    0    0    0
     202       68        1 -1.04000000    5.33654   12.87470    9.15376    0    0    0
     203       68        2  0.52000000    5.14426   13.05462    8.23370    0    0    0
     204       68        2  0.52000000    4.51920   13.07067    9.61253    0    0    0
     205       69        1 -1.04000000   19.96633    6.95747    2.61314    0    0    0
     206       69        2  0.52000000   19.29598    6.80670    3.27929    0    0    0
     207       69        2  0.52000000   20.73768    7.23583    3.10757    0    0    0
     208       70        1 -1.04000000    8.79436    0.17708    4.71901    0    0    0
     209       70        2  0.52000000    8.70428    0.28326    5.66582    0    0    0
     210       70        2  0.52000000    9.50135   -0.46035    4.61517    0    0    0
     211       71        1 -1.04000000    3.73582    5.82538    7.77127    0    0    0
     212       71        2  0.52000000    3.65734    6.66759    8.21890    0    0    0
     213       71        2  0.52000000    4.60683    5.50703    8.00984    0    0    0
     214       72        1 -1.04000000   -0.31257   11.93645   17.22552    0    0    0
     215       72        2  0.52000000   -0.28265   12.00183   16.27123    0    0    0
     216       72        2  0.52000000    0.59523   12.06173   17.50325    0    0    0
     217       73        1 -1.04000000   15.97902   16.61599    3.93147    0    0    0
     218       73        2  0.52000000   16.39509   17.05670    4.67208    0    0    0
     219       73        2  0.52000000   15.62588   17.32731    3.39645    0    0    0
     220       74        1 -1.04000000    5.10951    9.67708    3.80940    0    0    0
     221       74        2  0.52000000    4.26060    9.86015    4.21150    0    0    0
     222       74        2  0.52000000    5.62989   10.46278    3.97911    0    0    0
     223       75        1 -1.04000000   14.32438   13.94434    4.78957    0    0    0
     224       75        2  0.52000000   14.22059   13.86464    5.73758    0    0    0
     225       75        2  0.52000000   13.45503   14.19102    4.47285    0    0    0
     226       76        1 -1.04000000   19.75000   15.90259    4.28393    0    0    0
     227       76        2  0.52000000   20.58116   15.48140    4.06568    0    0    0
     228       76        2  0.52000000   19.66884   16.61602    3.65039    0    0    0
     229       77        1 -1.04000000   18.79782   18.00159   16.66575    0    0    0
     230       77        2  0.52000000   18.48850   17.75074   17.53595    0    0    0
     231       77        2  0.52000000   19.71368   18.24767   16.79830    0    0    0
     232       78        1 -1.04000000    6.72535   13.90903    5.26248    0    0    0
     233       78        2  0.52000000    6.62692   13.98189    4.31335    0    0    0
     234       78        2  0.52000000    7.64772   14.10908    5.42417    0    0    0
     235       79        1 -1.04000000   17.78416   11.75988    6.78009    0    0    0
     236       79        2  0.52000000   17.80378   11.82026    7.73498    0    0    0
     237       79        2  0.52000000   18.41206   12.41985    6.48493    0    0    0
     238       80        1 -1.04000000   13.72583   10.10481    9.25777    0    0    0
     239       80        2  0.52000000   14.10963   10.63801    8.56190    0    0    0
     240       80        2  0.52000000   14.16454    9.25719    9.18033    0    0    0
     241       81        1 -1.04000000   17.32828   20.07453   13.19820    0    0    0
     242       81        2  0.52000000   17.23662   19.89947   12.26182    0    0    0
     243       81        2  0.52000000   16.43510   20.02600   13.53998    0    0    0
     244       82        1 -1.04000000   11.02948    0.80561   12.33756    0    0    0
     245       82        2  0.52000000   11.73899    1.08943   11.76145    0    0    0
     246       82        2  0.52000000   10.23153    1.10496   11.90099    0    0    0
     247       83        1 -1.04000000   15.96927    4.10664    0.37455    0    0    0
     248       83        2  0.52000000   15.26075    3.92071   -0.24132    0    0    0
     249       83        2  0.52000000   16.76998    3.97265   -0.13323    0    0    0
     250       84        1 -1.04000000   15.88460   11.74399   15.27155    0    0    0
     251       84        2  0.52000000   15.84930   11.64442   14.32040    0    0    0
     252       84        2  0.52000000   16.26611   12.61160   15.40805    0    0    0
     253       85        1 -1.04000000    0.99379    5.65605    8.18510    0    0    0
     254       85        2  0.52000000    1.74867    6.09933    7.79844    0    0    0
     255       85        2  0.52000000    0.25754    6.24462    8.01646    0    0    0
     256       86        1 -1.04000000   11.14885    9.64062   17.96410    0    0    0
     257       86        2  0.52000000   10.61755   10.12043   17.32901    0    0    0
     258       86        2  0.52000000   11.23360   10.23896   18.70689    0    0    0
     259       87        1 -1.04000000   14.36499    7.93595   16.87639    0    0    0
     260       87        2  0.52000000   14.03826    7.90988   17.77551    0    0    0
     261       87        2  0.52000000   13.59674    8.15418   16.34810    0    0    0
     262       88        1 -1.04000000   16.01233    0.21873    2.67657    0    0    0
     263       88        2  0.52000000   16.74890   -0.16276    3.15384    0    0    0
     264       88        2  0.52000000   15.23877   -0.05597    3.16959    0    0    0
     265       89        1 -1.04000000   15.71516   11.96090    6.26446    0    0    0
     266       89        2  0.52000000   15.63810   12.27128    5.36247    0    0    0
     267       89        2  0.52000000   16.64674   11.76782    6.37307    0    0    0
     268       90        1 -1.04000000   18.78841    0.75889   15.22294    0    0    0
     269       90        2  0.52000000   18.47855    1.50465   14.70944    0    0    0
     270       90        2  0.52000000   19.73303    0.73646   15.06762    0    0    0
     271       91        1 -1.04000000   13.76324    6.20547    5.76692    0    0    0
     272       91        2  0.52000000   14.00714    6.39972    6.67170    0    0    0
     273       91        2  0.52000000   14.22963    5.39481    5.56138    0    0    0
     274       92        1 -1.04000000   13.98319    2.15780    9.35696    0    0    0
     275       92        2  0.52000000   13.25802    1.99471    8.75415    0    0    0
     276       92        2  0.52000000   14.75879    1.84749    8.88889    0    0    0
     277       93        1 -1.04000000   13.79718    2.33031   19.04860    0    0    0
     278       93        2  0.52000000   13.46962    1.43175   19.08248    0    0    0
     279       93        2  0.52000000   14.73319    2.23793   18.86892    0    0    0
     280       94        1 -1.04000000    7.87248   -0.13494   12.65630    0    0    0
     281       94        2  0.52000000    7.37761   -0.04642   13.47061    0    0    0
     282       94        2  0.52000000    8.74991    0.18136   12.87309    0    0    0
     283       95        1 -1.04000000    3.64413   10.85486   11.93003    0    0    0
     284       95        2  0.52000000    4.13207   10.83758   12.75312    0    0    0
     285       95        2  0.52000000    4.22380   11.30756   11.31686    0    0    0
     286       96        1 -1.04000000    5.30634    3.91492    8.77302    0    0    0
     287       96        2  0.52000000    4.93015    4.77692    8.94986    0    0    0
     288       96        2  0.52000000    4.76351    3.30816    9.27712    0    0    0
     289       97        1 -1.04000000   18.09924   16.68241    2.20466    0    0    0
     290       97        2  0.52000000   18.04375   16.77230    1.25351    0    0    0
     291       97        2  0.52000000   17.85701   17.54530    2.54182    0    0    0
     292       98        1 -1.04000000    6.86998   17.20239    5.69221    0    0    0
     293       98        2  0.52000000    6.60607   17.29465    6.60746    0    0    0
     294       98        2  0.52000000    7.52395   16.50297    5.70033    0    0    0
     295       99        1 -1.04000000    7.71565    7.09914    2.75116    0    0    0
     296       99        2  0.52000000    8.63347    6.91815    2.54942    0    0    0
     297       99        2  0.52000000    7.65088    6.98272    3.69942    0    0    0
     298      100        1 -1.04000000   13.26977    4.04494   15.72106    0    0    0
     299      100        2  0.52000000   13.39718    4.07478   16.66907    0    0    0
     300      100        2  0.52000000   12.33305    3.88028   15.60986    0    0    0
     301      101        1 -1.04000000    6.03257    3.24864    5.29953    0    0    0
     302      101        2  0.52000000    6.69256    3.03742    4.63949    0    0    0
     303      101        2  0.52000000    5.27487    2.71395    5.06098    0    0    0
     304      102        1 -1.04000000    4.31040   18.09583   20.21696    0    0    0
     305      102        2  0.52000000    4.25455   18.05054   19.26267    0    0    0
     306      102        2  0.52000000    3.43506   17.85363   20.52037    0    0    0
     307      103        1 -1.04000000   19.10888    9.71871    4.24824    0    0    0
     308      103        2  0.52000000   18.97965    9.64736    3.30269    0    0    0
     309      103        2  0.52000000   18.91148   10.63393    4.44907    0    0    0
     310      104        1 -1.04000000   15.28752    5.92471    8.74649    0    0    0
     311      104        2  0.52000000   15.02787    5.40665    9.50810    0    0    0
     312      104        2  0.52000000   14.68461    6.66864    8.74541    0    0    0
     313      105        1 -1.04000000   12.14233   15.79890   17.69684    0    0    0
     314      105        2  0.52000000   12.17498   15.56234   18.62357    0    0    0
     315      105        2  0.52000000   11.68269   16.63876   17.67959    0    0    0
     316      106        1 -1.04000000   13.11414   12.02485   12.62723    0    0    0
     317      106        2  0.52000000   12.28457   12.31485   13.00613    0    0    0
     318      106        2  0.52000000   13.60129   11.66030   13.36664    0    0    0
     319      107        1 -1.04000000    7.82319   17.17301    3.69766    0    0    0
     320      107        2  0.52000000    8.31143   16.34992    3.69766    0    0    0
     321      107        2  0.52000000    7.86538   17.47707    4.60468    0    0    0
     322      108        1 -1.04000000    3.03130   14.07901    4.61871    0    0    0
     323      108        2  0.52000000    3.44010   14.54395    5.34848    0    0    0
     324      108        2  0.52000000    2.52860   13.37704    5.03281    0    0    0
     325      109        1 -1.04000000   18.79380   18.05214    8.67233    0    0    0
     326      109        2  0.52000000   19.35234   18.68737    9.11996    0    0    0
     327      109        2  0.52000000   18.85386   17.26050    9.20771    0    0    0
     328      110        1 -1.04000000    1.69107   13.06810    1.77082    0    0    0
     329      110        2  0.52000000    2.03429   12.22098    2.05444    0    0    0
     330      110        2  0.52000000    2.27465   13.71091    2.17474    0    0    0
     331      111        1 -1.04000000    7.14475    1.29246   15.78525    0    0    0
     332      111        2  0.52000000    6.44731    1.33572   16.43913    0    0    0
     333      111        2  0.52000000    7.40794    0.37182   15.77563    0    0    0
     334      112        1 -1.04000000   15.07380   10.17432   12.34172    0    0    0
     335      112        2  0.52000000   14.41726    9.50311   12.15656    0    0    0
     336      112        2  0.52000000   15.50895   10.32258   11.50172    0    0    0
     337      113        1 -1.04000000   13.73703   10.76184    0.16348    0    0    0
     338      113        2  0.52000000   14.13597   10.68683   -0.70316    0    0    0