Created by /global/cfs/cdirs/m5056/rsb/codes/ATLAS-toolkit/scripts/createLammpsInput.pl on Thu Apr  9 14:47:58 2026

         864 atoms
         556 bonds
         268 angles

           6 atom types
           2 bond types
           1 angle types

		   0.000000  20.249310 xlo xhi
		   0.000000  20.249310 ylo yhi
		   0.000000  20.249310 zlo zhi

Masses

    1 1.5999E+01 # OW     
    2 1.0080E+00 # HW     
    3 6.9410E+00 # Li     
    4 3.9948E+01 # K_     
    5 1.5999E+01 # O_3    
    6 1.0080E+00 # H_     

Atoms

       1        1        1 -1.04000000   17.79681   14.22144    6.75044    0    0    0
       2        1        2  0.52000000   17.75026   14.22308    7.70631    0    0    0
       3        1        2  0.52000000   18.45293   13.55548    6.54325    0    0    0
       4        2        1 -1.04000000   11.98448    8.37396    7.11189    0    0    0
       5        2        2  0.52000000   11.44627    7.93747    6.45184    0    0    0
       6        2        2  0.52000000   12.56925    7.68858    7.43627    0    0    0
       7        3        1 -1.04000000    2.71295    4.97071   -0.26334    0    0    0
       8        3        2  0.52000000    2.63362    4.98345    0.69029    0    0    0
       9        3        2  0.52000000    3.65343    5.04584   -0.42695    0    0    0
      10        4        1 -1.04000000    0.31630   17.86119   19.81754    0    0    0
      11        4        2  0.52000000    0.06307   18.77647   19.93580    0    0    0
      12        4        2  0.52000000   -0.37937   17.36234   20.24665    0    0    0
      13        5        1 -1.04000000    2.62060   17.08982   18.97569    0    0    0
      14        5        2  0.52000000    3.13608   16.93485   19.76697    0    0    0
      15        5        2  0.52000000    3.24332   16.97534   18.25734    0    0    0
      16        6        1 -1.04000000    5.86366    5.64662   14.90440    0    0    0
      17        6        2  0.52000000    6.72271    6.01701   14.70266    0    0    0
      18        6        2  0.52000000    5.41364    6.33636   15.39294    0    0    0
      19        7        1 -1.04000000    3.77648   17.69141    1.91388    0    0    0
      20        7        2  0.52000000    3.53791   18.61723    1.87154    0    0    0
      21        7        2  0.52000000    4.68561   17.69136    2.21458    0    0    0
      22        8        1 -1.04000000    0.18285    3.84895    4.31041    0    0    0
      23        8        2  0.52000000    0.11045    3.47307    3.43330    0    0    0
      24        8        2  0.52000000   -0.29329    4.67798    4.25630    0    0    0
      25        9        1 -1.04000000    2.27605   13.74778   16.11306    0    0    0
      26        9        2  0.52000000    1.50603   14.03235   16.60494    0    0    0
      27        9        2  0.52000000    2.21792   14.21988   15.28200    0    0    0
      28       10        1 -1.04000000   10.73314   18.21510    9.18740    0    0    0
      29       10        2  0.52000000   10.81192   18.07088    8.24461    0    0    0
      30       10        2  0.52000000   11.45494   17.71401    9.56799    0    0    0
      31       11        1 -1.04000000   11.02009   16.17857    9.34686    0    0    0
      32       11        2  0.52000000   11.44057   16.44073    8.52813    0    0    0
      33       11        2  0.52000000   10.53934   15.38070    9.12501    0    0    0
      34       12        1 -1.04000000   12.18032    1.75103    7.75897    0    0    0
      35       12        2  0.52000000   12.34021    1.88069    8.69356    0    0    0
      36       12        2  0.52000000   11.47947    2.36828    7.54747    0    0    0
      37       13        1 -1.04000000    0.85180   17.70182   14.20427    0    0    0
      38       13        2  0.52000000    1.35010   18.44847   14.53601    0    0    0
      39       13        2  0.52000000    0.79810   17.84971   13.25972    0    0    0
      40       14        1 -1.04000000    0.83796   18.33371   15.87760    0    0    0
      41       14        2  0.52000000    1.15541   17.60631   15.34284    0    0    0
      42       14        2  0.52000000    1.00664   18.05998   16.77957    0    0    0
      43       15        1 -1.04000000    5.67557    8.78241    6.99937    0    0    0
      44       15        2  0.52000000    6.41699    8.72982    6.39657    0    0    0
      45       15        2  0.52000000    5.90744    9.48776    7.60406    0    0    0
      46       16        1 -1.04000000   11.31866    9.83718    3.84332    0    0    0
      47       16        2  0.52000000   10.43015    9.84505    3.48789    0    0    0
      48       16        2  0.52000000   11.25119   10.31777    4.66880    0    0    0
      49       17        1 -1.04000000   12.68663   11.82020   17.14857    0    0    0
      50       17        2  0.52000000   13.39817   12.24655   17.62584    0    0    0
      51       17        2  0.52000000   12.91520   11.93325   16.22559    0    0    0
      52       18        1 -1.04000000    8.36647    6.07300   19.11388    0    0    0
      53       18        2  0.52000000    8.06082    5.84257   18.23677    0    0    0
      54       18        2  0.52000000    7.57270    6.08443   19.64935    0    0    0
      55       19        1 -1.04000000   15.74076   10.05819    8.71362    0    0    0
      56       19        2  0.52000000   15.56440    9.92276    9.64443    0    0    0
      57       19        2  0.52000000   16.69484   10.01905    8.64195    0    0    0
      58       20        1 -1.04000000   13.98536   17.17293   15.65002    0    0    0
      59       20        2  0.52000000   13.32562   16.60820   16.05212    0    0    0
      60       20        2  0.52000000   14.68902   17.21887   16.29785    0    0    0
      61       21        1 -1.04000000    5.30662   13.92906    5.23142    0    0    0
      62       21        2  0.52000000    4.43176   14.21761    5.49067    0    0    0
      63       21        2  0.52000000    5.26162   13.85334    4.27791    0    0    0
      64       22        1 -1.04000000    5.33683   16.19626    3.97498    0    0    0
      65       22        2  0.52000000    5.05040   15.61191    4.67665    0    0    0
      66       22        2  0.52000000    4.61277   16.19183    3.34837    0    0    0
      67       23        1 -1.04000000   16.85465   10.91744   16.35307    0    0    0
      68       23        2  0.52000000   16.38873   10.93394   15.51731    0    0    0
      69       23        2  0.52000000   17.75662   11.14861   16.12962    0    0    0
      70       24        1 -1.04000000    0.96835   15.67775   16.78147    0    0    0
      71       24        2  0.52000000    1.19986   15.73632   17.70819    0    0    0
      72       24        2  0.52000000    0.83179   16.58592   16.51034    0    0    0
      73       25        1 -1.04000000    9.70997   11.23786   19.10912    0    0    0
      74       25        2  0.52000000   10.57686   11.48183   18.78533    0    0    0
      75       25        2  0.52000000    9.71317   10.28031   19.10555    0    0    0
      76       26        1 -1.04000000   14.94024   18.36883   10.11399    0    0    0
      77       26        2  0.52000000   14.29693   17.66279   10.05473    0    0    0
      78       26        2  0.52000000   15.76282   17.96837    9.83128    0    0    0
      79       27        1 -1.04000000    5.84888   17.19198    1.30481    0    0    0
      80       27        2  0.52000000    5.75852   17.40414    0.37601    0    0    0
      81       27        2  0.52000000    6.39260   16.40388    1.31918    0    0    0
      82       28        1 -1.04000000    4.21945    2.98407   14.32279    0    0    0
      83       28        2  0.52000000    4.50439    2.87876   13.41528    0    0    0
      84       28        2  0.52000000    3.27616    3.13717   14.26193    0    0    0
      85       29        1 -1.04000000    2.98074    1.74772    5.70237    0    0    0
      86       29        2  0.52000000    2.59849    2.62359    5.75317    0    0    0
      87       29        2  0.52000000    3.42077    1.62869    6.54447    0    0    0
      88       30        1 -1.04000000   17.87622    3.20814    9.69348    0    0    0
      89       30        2  0.52000000   18.13135    2.28593    9.71042    0    0    0
      90       30        2  0.52000000   17.99243    3.50593   10.59611    0    0    0
      91       31        1 -1.04000000    5.75644   11.02833   18.69590    0    0    0
      92       31        2  0.52000000    5.53320   10.86003   19.61115    0    0    0
      93       31        2  0.52000000    6.71037   11.11164   18.69295    0    0    0
      94       32        1 -1.04000000    7.28090    7.05329   10.73381    0    0    0
      95       32        2  0.52000000    7.35748    7.11318   11.68586    0    0    0
      96       32        2  0.52000000    6.36162    6.83354   10.58033    0    0    0
      97       33        1 -1.04000000    8.21626   15.81195    8.26546    0    0    0
      98       33        2  0.52000000    8.26224   15.73599    7.31259    0    0    0
      99       33        2  0.52000000    7.52150   16.45206    8.42195    0    0    0
     100       34        1 -1.04000000    9.30897    4.06125    5.23106    0    0    0
     101       34        2  0.52000000    9.30050    3.67856    4.35395    0    0    0
     102       34        2  0.52000000    8.39053    4.26019    5.41499    0    0    0
     103       35        1 -1.04000000    6.21990   14.77741    7.76612    0    0    0
     104       35        2  0.52000000    6.23928   14.81975    8.72199    0    0    0
     105       35        2  0.52000000    5.54083   15.40284    7.51189    0    0    0
     106       36        1 -1.04000000   17.33362   20.14990    4.13721    0    0    0
     107       36        2  0.52000000   16.44495   20.47832    4.27226    0    0    0
     108       36        2  0.52000000   17.22143   19.37177    3.59053    0    0    0
     109       37        1 -1.04000000    7.29245    9.74851    4.06189    0    0    0
     110       37        2  0.52000000    6.85739   10.30991    4.70330    0    0    0
     111       37        2  0.52000000    6.85017    9.94158    3.23482    0    0    0
     112       38        1 -1.04000000    0.19760    7.90534   16.67659    0    0    0
     113       38        2  0.52000000    0.17456    7.43231   17.50819    0    0    0
     114       38        2  0.52000000   -0.37216    8.66236   16.81522    0    0    0
     115       39        1 -1.04000000   14.70385    2.01230    6.74555    0    0    0
     116       39        2  0.52000000   14.67796    2.19982    7.68364    0    0    0
     117       39        2  0.52000000   15.61819    1.78788    6.57081    0    0    0
     118       40        1 -1.04000000    0.61575   11.00153    9.92963    0    0    0
     119       40        2  0.52000000    1.32761   11.07741    9.29453    0    0    0
     120       40        2  0.52000000    1.05664   10.92105   10.77584    0    0    0
     121       41        1 -1.04000000   12.85696   14.65414   11.11191    0    0    0
     122       41        2  0.52000000   12.92649   14.99869   10.22180    0    0    0
     123       41        2  0.52000000   13.21655   15.34716   11.66629    0    0    0
     124       42        1 -1.04000000   18.32596    8.78768    3.96430    0    0    0
     125       42        2  0.52000000   17.94962    9.15255    4.76498    0    0    0
     126       42        2  0.52000000   17.72442    9.05977    3.27072    0    0    0
     127       43        1 -1.04000000   13.81845   15.31105    3.15128    0    0    0
     128       43        2  0.52000000   14.62589   15.29676    2.63778    0    0    0
     129       43        2  0.52000000   13.55566   14.39219    3.21093    0    0    0
     130       44        1 -1.04000000   16.90844   11.02730    7.37878    0    0    0
     131       44        2  0.52000000   16.82726   11.70361    6.70658    0    0    0
     132       44        2  0.52000000   17.26430   10.26909    6.91464    0    0    0
     133       45        1 -1.04000000    2.66377   13.95916    0.80537    0    0    0
     134       45        2  0.52000000    2.84986   14.54963    1.53514    0    0    0
     135       45        2  0.52000000    3.48637   13.49122    0.65949    0    0    0
     136       46        1 -1.04000000   -0.18148   13.82449    5.70190    0    0    0
     137       46        2  0.52000000   -0.41894   13.79918    6.62862    0    0    0
     138       46        2  0.52000000    0.60042   14.37633    5.66948    0    0    0
     139       47        1 -1.04000000    2.84694   11.71047    2.21295    0    0    0
     140       47        2  0.52000000    2.96592   11.73945    1.26382    0    0    0
     141       47        2  0.52000000    3.18714   12.55007    2.52323    0    0    0
     142       48        1 -1.04000000   18.15485    6.06721   18.64771    0    0    0
     143       48        2  0.52000000   18.34807    5.34398   19.24391    0    0    0
     144       48        2  0.52000000   17.49708    6.58881   19.10837    0    0    0
     145       49        1 -1.04000000    3.98686    9.35654    6.84092    0    0    0
     146       49        2  0.52000000    4.62455    9.01907    7.46965    0    0    0
     147       49        2  0.52000000    3.38859    8.62439    6.68943    0    0    0
     148       50        1 -1.04000000   16.38763   15.98992   19.04734    0    0    0
     149       50        2  0.52000000   15.72767   15.47379   19.50985    0    0    0
     150       50        2  0.52000000   15.88469   16.53628   18.44280    0    0    0
     151       51        1 -1.04000000   11.62189    5.90891   18.96345    0    0    0
     152       51        2  0.52000000   12.02010    6.51718   19.58577    0    0    0
     153       51        2  0.52000000   12.35801    5.57391   18.45078    0    0    0
     154       52        1 -1.04000000    9.10331   18.28333    1.75170    0    0    0
     155       52        2  0.52000000    9.10815   18.31258    2.70824    0    0    0
     156       52        2  0.52000000    8.78854   17.40409    1.54006    0    0    0
     157       53        1 -1.04000000   13.33182    9.17349    2.11136    0    0    0
     158       53        2  0.52000000   12.57243    8.95977    2.65313    0    0    0
     159       53        2  0.52000000   13.09575    8.86674    1.23551    0    0    0
     160       54        1 -1.04000000    2.35600   13.93685   12.85210    0    0    0
     161       54        2  0.52000000    1.78385   14.68881   12.70030    0    0    0
     162       54        2  0.52000000    1.86014   13.37434   13.44760    0    0    0
     163       55        1 -1.04000000   16.18726    6.97191    0.34168    0    0    0
     164       55        2  0.52000000   15.28482    7.25194    0.18988    0    0    0
     165       55        2  0.52000000   16.52792    6.77615   -0.53156    0    0    0
     166       56        1 -1.04000000    0.68750    5.03869   12.23120    0    0    0
     167       56        2  0.52000000    0.83991    4.37479   11.55899    0    0    0
     168       56        2  0.52000000    1.47259    5.58652   12.20981    0    0    0
     169       57        1 -1.04000000   16.90358   18.70755   14.24036    0    0    0
     170       57        2  0.52000000   16.90213   18.70357   13.28337    0    0    0
     171       57        2  0.52000000   17.19430   19.58889   14.47626    0    0    0
     172       58        1 -1.04000000   14.27095    4.11050   14.25880    0    0    0
     173       58        2  0.52000000   14.12095    4.46267   13.38169    0    0    0
     174       58        2  0.52000000   13.60810    3.42683   14.35951    0    0    0
     175       59        1 -1.04000000    0.85294    4.87892   14.65895    0    0    0
     176       59        2  0.52000000    0.42413    4.87892   15.51451    0    0    0
     177       59        2  0.52000000    1.72293    5.24217   14.82654    0    0    0
     178       60        1 -1.04000000   14.29002    3.26049    0.97490    0    0    0
     179       60        2  0.52000000   14.16605    2.58468    1.64105    0    0    0
     180       60        2  0.52000000   13.54392    3.15483    0.38406    0    0    0
     181       61        1 -1.04000000   11.93974    1.89878    6.62754    0    0    0
     182       61        2  0.52000000   12.47698    2.61793    6.95928    0    0    0
     183       61        2  0.52000000   11.58327    1.48329    7.41318    0    0    0
     184       62        1 -1.04000000    6.99142    8.19514   13.66170    0    0    0
     185       62        2  0.52000000    6.24758    7.90520   14.18941    0    0    0
     186       62        2  0.52000000    7.76100    7.89966   14.14889    0    0    0
     187       63        1 -1.04000000    6.86939   12.91610   13.35847    0    0    0
     188       63        2  0.52000000    7.77857   12.98056   13.06677    0    0    0
     189       63        2  0.52000000    6.35204   13.10335   12.57476    0    0    0
     190       64        1 -1.04000000    9.22867   10.10198   16.29985    0    0    0
     191       64        2  0.52000000    9.34324   10.32080   15.37528    0    0    0
     192       64        2  0.52000000    8.42809    9.57722   16.32487    0    0    0
     193       65        1 -1.04000000    6.03176    8.34872   18.82683    0    0    0
     194       65        2  0.52000000    5.56064    8.13563   19.63212    0    0    0
     195       65        2  0.52000000    6.40761    7.51565   18.54105    0    0    0
     196       66        1 -1.04000000    5.15431    3.74270   19.74982    0    0    0
     197       66        2  0.52000000    4.24013    4.01754   19.81753    0    0    0
     198       66        2  0.52000000    5.60556    4.23976   20.43264    0    0    0
     199       67        1 -1.04000000   14.95580    4.78968   11.67379    0    0    0
     200       67        2  0.52000000   14.45810    4.71874   12.48810    0    0    0
     201       67        2  0.52000000   15.58609    5.49158   11.83811    0    0    0
     202       68        1 -1.04000000    5.10818   17.20420   15.31496    0    0    0
     203       68        2  0.52000000    4.65012   17.52477   14.53826    0    0    0
     204       68        2  0.52000000    5.24170   16.27103   15.14678    0    0    0
     205       69        1 -1.04000000    7.81198    3.29845   12.83214    0    0    0
     206       69        2  0.52000000    8.73229    3.25769   13.09140    0    0    0
     207       69        2  0.52000000    7.45574    2.44385   13.07645    0    0    0
     208       70        1 -1.04000000    0.78827    3.14850    0.70722    0    0    0
     209       70        2  0.52000000    0.49084    2.92011    1.58769    0    0    0
     210       70        2  0.52000000    1.72089    2.93139    0.70509    0    0    0
     211       71        1 -1.04000000    2.64079   17.02773    6.15099    0    0    0
     212       71        2  0.52000000    3.47650   17.08698    6.61350    0    0    0
     213       71        2  0.52000000    2.88271   16.88530    5.23551    0    0    0
     214       72        1 -1.04000000   11.78478   16.30755    0.10813    0    0    0
     215       72        2  0.52000000   12.33755   16.22376   -0.66858    0    0    0
     216       72        2  0.52000000   11.87767   15.46869    0.56045    0    0    0
     217       73        1 -1.04000000   10.03910    0.61273   10.96685    0    0    0
     218       73        2  0.52000000   10.20444    1.15399   11.73858    0    0    0
     219       73        2  0.52000000    9.75646    1.23328   10.29457    0    0    0
     220       74        1 -1.04000000    3.26090    5.85773   17.25356    0    0    0
     221       74        2  0.52000000    3.31567    5.86308   16.29814    0    0    0
     222       74        2  0.52000000    2.42343    6.27920   17.44830    0    0    0
     223       75        1 -1.04000000   13.36466   17.12571   19.06184    0    0    0
     224       75        2  0.52000000   12.62267   17.62566   18.72219    0    0    0
     225       75        2  0.52000000   13.01267   16.24862   19.21596    0    0    0
     226       76        1 -1.04000000   10.73784   14.15197    8.75347    0    0    0
     227       76        2  0.52000000   10.67300   14.07953    9.70551    0    0    0
     228       76        2  0.52000000   11.58916   13.76851    8.54102    0    0    0
     229       77        1 -1.04000000    3.03428   10.01294   18.61108    0    0    0
     230       77        2  0.52000000    3.67838   10.28391   19.26496    0    0    0
     231       77        2  0.52000000    2.28734    9.70315   19.12396    0    0    0
     232       78        1 -1.04000000    8.02179   10.76710    5.68714    0    0    0
     233       78        2  0.52000000    7.60208   10.58171    6.52698    0    0    0
     234       78        2  0.52000000    8.37613   11.65119    5.78589    0    0    0
     235       79        1 -1.04000000    0.64662   14.08345   17.85592    0    0    0
     236       79        2  0.52000000    1.29541   13.47634   17.50048    0    0    0
     237       79        2  0.52000000    1.05797   14.44021   18.64360    0    0    0
     238       80        1 -1.04000000   12.84969    7.15280    6.67341    0    0    0
     239       80        2  0.52000000   12.48378    6.45390    7.21518    0    0    0
     240       80        2  0.52000000   13.66653    7.39330    7.11141    0    0    0
     241       81        1 -1.04000000   18.74578    5.18919    5.77157    0    0    0
     242       81        2  0.52000000   18.55425    4.54171    6.44976    0    0    0
     243       81        2  0.52000000   19.69998    5.26910    5.77868    0    0    0
     244       82        1 -1.04000000   13.98602    5.77126    0.68364    0    0    0
     245       82        2  0.52000000   13.45131    5.70948    1.47491    0    0    0
     246       82        2  0.52000000   14.56266    6.51926    0.84145    0    0    0
     247       83        1 -1.04000000   12.02606   10.65377   13.82098    0    0    0
     248       83        2  0.52000000   11.83517   10.82311   14.74333    0    0    0
     249       83        2  0.52000000   12.13878   11.52312   13.43568    0    0    0
     250       84        1 -1.04000000   15.19599   16.29792    8.84053    0    0    0
     251       84        2  0.52000000   15.00919   16.14915    9.76725    0    0    0
     252       84        2  0.52000000   14.79482   15.55293    8.39222    0    0    0
     253       85        1 -1.04000000   13.09746   12.27648   13.74181    0    0    0
     254       85        2  0.52000000   12.99412   12.36981   14.68863    0    0    0
     255       85        2  0.52000000   12.90841   11.35371   13.56955    0    0    0
     256       86        1 -1.04000000   12.76822   11.31205    7.03876    0    0    0
     257       86        2  0.52000000   13.36834   11.11411    6.32007    0    0    0
     258       86        2  0.52000000   12.86345   10.57384    7.64117    0    0    0
     259       87        1 -1.04000000    9.68983    2.77939   18.91209    0    0    0
     260       87        2  0.52000000   10.43399    2.54847   19.46774    0    0    0
     261       87        2  0.52000000    9.87618    3.67213   18.62017    0    0    0
     262       88        1 -1.04000000    1.89504    3.05086   19.37282    0    0    0
     263       88        2  0.52000000    1.63685    2.34261   18.78327    0    0    0
     264       88        2  0.52000000    2.46811    3.60653   18.84390    0    0    0
     265       89        1 -1.04000000   13.20792    4.11908    2.69147    0    0    0
     266       89        2  0.52000000   13.41168    4.24364    3.61820    0    0    0
     267       89        2  0.52000000   12.38040    3.63728    2.69033    0    0    0
     268       90        1 -1.04000000    5.29616    5.15844    3.80054    0    0    0
     269       90        2  0.52000000    4.36034    5.32583    3.69069    0    0    0
     270       90        2  0.52000000    5.34350    4.51573    4.50878    0    0    0
     271       91        1 -1.04000000    8.09078    5.00078    0.37995    0    0    0
     272       91        2  0.52000000    8.32812    5.65184   -0.28009    0    0    0
     273       91        2  0.52000000    7.58109    4.34738   -0.09985    0    0    0
     274       92        1 -1.04000000    1.36164    9.95705    4.14134    0    0    0
     275       92        2  0.52000000    0.59724   10.31923    4.58897    0    0    0
     276       92        2  0.52000000    1.04112    9.72372    3.26970    0    0    0
     277       93        1 -1.04000000   14.67567   16.00525    2.21767    0    0    0
     278       93        2  0.52000000   15.47962   16.50651    2.35272    0    0    0
     279       93        2  0.52000000   14.84471   15.48824    1.42960    0    0    0
     280       94        1 -1.04000000   15.75564    4.82247   15.24774    0    0    0
     281       94        2  0.52000000   15.70591    4.84604   14.29232    0    0    0
     282       94        2  0.52000000   16.53845    5.33149   15.45994    0    0    0
     283       95        1 -1.04000000   16.68261    5.87509    7.19043    0    0    0
     284       95        2  0.52000000   16.82926    5.89204    6.24489    0    0    0
     285       95        2  0.52000000   17.48813    6.23287    7.56468    0    0    0
     286       96        1 -1.04000000   18.69139    8.11269   15.78866    0    0    0
     287       96        2  0.52000000   19.51259    8.58518   15.92371    0    0    0
     288       96        2  0.52000000   18.79602    7.30213   16.28763    0    0    0
     289       97        1 -1.04000000   13.62791    3.02817   17.11557    0    0    0
     290       97        2  0.52000000   14.21183    2.27469   17.20014    0    0    0
     291       97        2  0.52000000   14.16026    3.69714   16.68428    0    0    0
     292       98        1 -1.04000000   15.92954    2.98958    9.61590    0    0    0
     293       98        2  0.52000000   16.57557    3.52305   10.07841    0    0    0
     294       98        2  0.52000000   15.49489    2.48737   10.30568    0    0    0
     295       99        1 -1.04000000   16.00933    7.83866    0.64435    0    0    0
     296       99        2  0.52000000   16.45572    7.53788    1.43563    0    0    0
     297       99        2  0.52000000   15.53496    8.62346    0.92002    0    0    0
     298      100        1 -1.04000000   13.18000   16.24396    5.75365    0    0    0
     299      100        2  0.52000000   13.32488   16.15002    6.69495    0    0    0
     300      100        2  0.52000000   12.49511   15.60603    5.55140    0    0    0
     301      101        1 -1.04000000    0.11612   16.90661    3.36111    0    0    0
     302      101        2  0.52000000   -0.77826   16.93037    3.02146    0    0    0
     303      101        2  0.52000000    0.66215   17.16302    2.61744    0    0    0
     304      102        1 -1.04000000    3.23040    8.11526   14.29366    0    0    0
     305      102        2  0.52000000    3.24249    8.41880   13.38615    0    0    0
     306      102        2  0.52000000    2.52711    7.46594   14.32019    0    0    0
     307      103        1 -1.04000000    4.29624   16.06061   15.24733    0    0    0
     308      103        2  0.52000000    4.33347   15.99910   14.29303    0    0    0
     309      103        2  0.52000000    3.37029   15.94029   15.45964    0    0    0
     310      104        1 -1.04000000   10.95825    8.67132   18.79305    0    0    0
     311      104        2  0.52000000   10.52876    8.90350   19.61613    0    0    0
     312      104        2  0.52000000   11.51299    9.42518   18.59082    0    0    0
     313      105        1 -1.04000000    5.66766    4.20501   12.98902    0    0    0
     314      105        2  0.52000000    6.46999    4.41556   13.46629    0    0    0
     315      105        2  0.52000000    5.86235    3.37943   12.54469    0    0    0
     316      106        1 -1.04000000   19.21795   17.17129   17.72475    0    0    0
     317      106        2  0.52000000   18.65468   16.40322   17.63175    0    0    0
     318      106        2  0.52000000   19.12737   17.42550   18.64350    0    0    0
     319      107        1 -1.04000000   -0.34806    0.15435   12.91264    0    0    0
     320      107        2  0.52000000    0.21857    0.36946   13.65325    0    0    0
     321      107        2  0.52000000    0.12949   -0.52380   12.43411    0    0    0
     322      108        1 -1.04000000    6.97213    1.31808    6.22506    0    0    0
     323      108        2  0.52000000    6.29767    0.93792    5.66254    0    0    0
     324      108        2  0.52000000    7.73020    0.74401    6.11240    0    0    0
     325      109        1 -1.04000000   10.15444   -0.35357   14.06111    0    0    0
     326      109        2  0.52000000   10.55339    0.49814   14.23794    0    0    0
     327      109        2  0.52000000    9.29216   -0.14457   13.70095    0    0    0
     328      110        1 -1.04000000   10.01939    1.61139    0.03471    0    0    0
     329      110        2  0.52000000   10.25290    2.26999    0.68859    0    0    0
     330      110        2  0.52000000    9.72771    2.11862   -0.72329    0    0    0
     331      111        1 -1.04000000   10.67995   15.00162   11.22399    0    0    0
     332      111        2  0.52000000   10.73092   15.11297   10.27485    0    0    0
     333      111        2  0.52000000   11.58913   14.88540   11.50116    0    0    0
     334      112        1 -1.04000000    2.10539   -0.30685    0.21757    0    0    0
     335      112        2  0.52000000    1.53266   -0.30178   -0.54912    0    0    0
     336      112        2  0.52000000    2.36194    0.60864    0.33155    0    0    0
     337      113        1 -1.04000000    8.26382   12.20110   -0.20631    0    0    0
     338      113        2  0.52000000    8.15064   12.18700    0.74387    0    0    0