Created by /global/cfs/cdirs/m5056/rsb/codes/ATLAS-toolkit/scripts/createLammpsInput.pl on Thu Apr  9 14:47:52 2026

         813 atoms
         522 bonds
         251 angles

           5 atom types
           2 bond types
           1 angle types

		   0.000000  20.249070 xlo xhi
		   0.000000  20.249070 ylo yhi
		   0.000000  20.249070 zlo zhi

Masses

    1 1.5999E+01 # OW     
    2 1.0080E+00 # HW     
    3 3.9948E+01 # K_     
    4 1.5999E+01 # O_3    
    5 1.0080E+00 # H_     

Atoms

       1        1        1 -1.04000000   12.97404    1.64031    7.84983    0    0    0
       2        1        2  0.52000000   13.21431    1.88595    8.74301    0    0    0
       3        1        2  0.52000000   12.81165    2.47374    7.40716    0    0    0
       4        2        1 -1.04000000   14.98674   12.21219    4.32772    0    0    0
       5        2        2  0.52000000   15.73775   12.07098    3.75161    0    0    0
       6        2        2  0.52000000   14.27551   11.71683    3.92067    0    0    0
       7        3        1 -1.04000000    1.71217   19.00850    2.73603    0    0    0
       8        3        2  0.52000000    1.65552   19.20641    3.67062    0    0    0
       9        3        2  0.52000000    2.63231   18.78509    2.59335    0    0    0
      10        4        1 -1.04000000    1.01221    4.28358   19.26839    0    0    0
      11        4        2  0.52000000    0.34146    3.60988   19.15854    0    0    0
      12        4        2  0.52000000    1.64633    4.10654   18.57307    0    0    0
      13        5        1 -1.04000000   15.00165    7.38111   11.08577    0    0    0
      14        5        2  0.52000000   14.78176    6.97001   10.25002    0    0    0
      15        5        2  0.52000000   15.21659    6.64889   11.66421    0    0    0
      16        6        1 -1.04000000    4.03850    8.30221    3.75548    0    0    0
      17        6        2  0.52000000    3.96197    8.32670    4.70910    0    0    0
      18        6        2  0.52000000    3.99953    7.37109    3.53542    0    0    0
      19        7        1 -1.04000000    0.74461   14.26328    5.13439    0    0    0
      20        7        2  0.52000000    1.69604   14.34769    5.07514    0    0    0
      21        7        2  0.52000000    0.55935   13.38903    4.79047    0    0    0
      22        8        1 -1.04000000    9.94573   -0.30511   15.76217    0    0    0
      23        8        2  0.52000000    9.93439   -0.29937   16.71908    0    0    0
      24        8        2  0.52000000   10.11988    0.60448   15.51875    0    0    0
      25        9        1 -1.04000000    2.84302   12.35413   14.94948    0    0    0
      26        9        2  0.52000000    3.56172   12.11000   15.53233    0    0    0
      27        9        2  0.52000000    2.59527   11.53587   14.51819    0    0    0
      28       10        1 -1.04000000   10.86080   13.67651    0.83094    0    0    0
      29       10        2  0.52000000   11.20757   13.77080    1.71791    0    0    0
      30       10        2  0.52000000   10.93163   14.55268    0.45115    0    0    0
      31       11        1 -1.04000000    2.05499   16.68039    0.78222    0    0    0
      32       11        2  0.52000000    1.97341   16.73328    1.73427    0    0    0
      33       11        2  0.52000000    1.97160   17.58634    0.48350    0    0    0
      34       12        1 -1.04000000   18.79513    3.30296   18.86273    0    0    0
      35       12        2  0.52000000   18.60707    2.37108   18.75288    0    0    0
      36       12        2  0.52000000   19.59779    3.32596   19.38439    0    0    0
      37       13        1 -1.04000000   19.28331    9.20656    1.82775    0    0    0
      38       13        2  0.52000000   19.37726    8.52592    2.49390    0    0    0
      39       13        2  0.52000000   18.33943    9.26752    1.67836    0    0    0
      40       14        1 -1.04000000    2.16172   15.76084   13.26316    0    0    0
      41       14        2  0.52000000    2.14175   15.65711   12.31200    0    0    0
      42       14        2  0.52000000    1.69653   16.58205   13.42484    0    0    0
      43       15        1 -1.04000000   17.74123   19.24303   13.16302    0    0    0
      44       15        2  0.52000000   18.52270   18.86426   13.56512    0    0    0
      45       15        2  0.52000000   17.73607   18.89271   12.27186    0    0    0
      46       16        1 -1.04000000    7.32816    4.81996    6.11180    0    0    0
      47       16        2  0.52000000    6.42596    4.56606    6.30525    0    0    0
      48       16        2  0.52000000    7.24588    5.61398    5.58295    0    0    0
      49       17        1 -1.04000000   16.09984   12.34546    2.15261    0    0    0
      50       17        2  0.52000000   15.36070   12.15150    1.57650    0    0    0
      51       17        2  0.52000000   16.53946   11.50304    2.27089    0    0    0
      52       18        1 -1.04000000    7.00947   15.34733   16.17853    0    0    0
      53       18        2  0.52000000    7.33177   14.50953   16.51027    0    0    0
      54       18        2  0.52000000    6.65877   15.14314   15.31121    0    0    0
      55       19        1 -1.04000000   18.61849    7.99109   10.08348    0    0    0
      56       19        2  0.52000000   19.09933    7.42429    9.48068    0    0    0
      57       19        2  0.52000000   19.28218    8.58463   10.43583    0    0    0
      58       20        1 -1.04000000    0.67919    8.79038    7.07578    0    0    0
      59       20        2  0.52000000    0.73277    9.72062    6.85754    0    0    0
      60       20        2  0.52000000    1.58804    8.48900    7.06668    0    0    0
      61       21        1 -1.04000000   16.89798    8.67399    6.18950    0    0    0
      62       21        2  0.52000000   16.96760    8.80416    5.24396    0    0    0
      63       21        2  0.52000000   17.13442    9.52185    6.56654    0    0    0
      64       22        1 -1.04000000   10.01191   -0.21872   -0.32345    0    0    0
      65       22        2  0.52000000    9.91819   -0.51611    0.58133    0    0    0
      66       22        2  0.52000000   10.06990    0.73483   -0.25788    0    0    0
      67       23        1 -1.04000000    7.03816    6.92518   16.38151    0    0    0
      68       23        2  0.52000000    6.58384    7.66107   15.97174    0    0    0
      69       23        2  0.52000000    7.37801    6.41375   15.64675    0    0    0
      70       24        1 -1.04000000    2.18458   10.82409    4.70405    0    0    0
      71       24        2  0.52000000    1.64543   10.41761    5.38224    0    0    0
      72       24        2  0.52000000    2.17000   11.75830    4.91372    0    0    0
      73       25        1 -1.04000000   14.38825   17.03141    8.02965    0    0    0
      74       25        2  0.52000000   13.81310   16.42220    8.49216    0    0    0
      75       25        2  0.52000000   13.79865   17.54640    7.47820    0    0    0
      76       26        1 -1.04000000   11.67161    6.84992   18.14912    0    0    0
      77       26        2  0.52000000   12.20930    6.49450   17.44172    0    0    0
      78       26        2  0.52000000   12.11909    7.65557   18.40916    0    0    0
      79       27        1 -1.04000000    5.69686    3.75640   10.03698    0    0    0
      80       27        2  0.52000000    5.70074    4.63180    9.65031    0    0    0
      81       27        2  0.52000000    6.60240    3.61181   10.31271    0    0    0
      82       28        1 -1.04000000    0.77871   18.94576    8.68268    0    0    0
      83       28        2  0.52000000    1.59320   19.44364    8.75039    0    0    0
      84       28        2  0.52000000    0.62809   18.61060    9.56693    0    0    0
      85       29        1 -1.04000000    4.38184    6.01713    0.91934    0    0    0
      86       29        2  0.52000000    3.65828    6.37578    0.40584    0    0    0
      87       29        2  0.52000000    3.95987    5.60708    1.67481    0    0    0
      88       30        1 -1.04000000    6.24547    1.81139    3.23827    0    0    0
      89       30        2  0.52000000    6.22006    1.78299    2.28203    0    0    0
      90       30        2  0.52000000    5.53447    2.40562    3.47971    0    0    0
      91       31        1 -1.04000000   13.71488   17.11542    4.24080    0    0    0
      92       31        2  0.52000000   13.73142   17.16791    3.28538    0    0    0
      93       31        2  0.52000000   14.55370   16.71667    4.47382    0    0    0
      94       32        1 -1.04000000   17.94023   17.69805    0.75946    0    0    0
      95       32        2  0.52000000   17.95089   17.69114    1.71638    0    0    0
      96       32        2  0.52000000   18.10888   18.61081    0.52416    0    0    0
      97       33        1 -1.04000000    6.13805    6.85810   17.66324    0    0    0
      98       33        2  0.52000000    5.34769    7.38053   17.79829    0    0    0
      99       33        2  0.52000000    6.51426    6.76137   18.53847    0    0    0
     100       34        1 -1.04000000   14.27450   17.76574    0.85042    0    0    0
     101       34        2  0.52000000   14.23971   18.13913    1.73088    0    0    0
     102       34        2  0.52000000   13.48579   18.09513    0.41870    0    0    0
     103       35        1 -1.04000000   13.00806   10.03328   15.61086    0    0    0
     104       35        2  0.52000000   12.44478    9.46752   16.13858    0    0    0
     105       35        2  0.52000000   13.54716   10.49920   16.25056    0    0    0
     106       36        1 -1.04000000    7.95172    9.35653   10.84782    0    0    0
     107       36        2  0.52000000    7.85829    9.09302   11.76307    0    0    0
     108       36        2  0.52000000    8.18999    8.55045   10.38912    0    0    0
     109       37        1 -1.04000000    2.16889    2.27368    4.22176    0    0    0
     110       37        2  0.52000000    2.12709    2.23790    3.26634    0    0    0
     111       37        2  0.52000000    1.70402    1.48842    4.51191    0    0    0
     112       38        1 -1.04000000   12.19993    6.25910    3.78670    0    0    0
     113       38        2  0.52000000   12.39409    5.95670    4.67366    0    0    0
     114       38        2  0.52000000   11.40598    5.78420    3.53964    0    0    0
     115       39        1 -1.04000000   16.01360    5.69106    6.76131    0    0    0
     116       39        2  0.52000000   16.21765    5.71831    7.69590    0    0    0
     117       39        2  0.52000000   15.76875    6.59063    6.54279    0    0    0
     118       40        1 -1.04000000   13.11276    6.19630    5.68164    0    0    0
     119       40        2  0.52000000   12.82851    6.55647    6.52148    0    0    0
     120       40        2  0.52000000   13.05873    5.24723    5.79688    0    0    0
     121       41        1 -1.04000000    6.32918    6.16383   13.13192    0    0    0
     122       41        2  0.52000000    6.17973    5.75386   12.28020    0    0    0
     123       41        2  0.52000000    5.49109    6.08232   13.58788    0    0    0
     124       42        1 -1.04000000   16.70940   10.77858   10.86170    0    0    0
     125       42        2  0.52000000   16.93115   10.94885   11.77695    0    0    0
     126       42        2  0.52000000   17.35945   11.27257   10.36136    0    0    0
     127       43        1 -1.04000000    1.92277    2.32624    9.79949    0    0    0
     128       43        2  0.52000000    2.77526    2.01119   10.09925    0    0    0
     129       43        2  0.52000000    1.30197    1.66257   10.10126    0    0    0
     130       44        1 -1.04000000    8.22583   12.21991    1.23074    0    0    0
     131       44        2  0.52000000    7.96062   12.39860    0.32876    0    0    0
     132       44        2  0.52000000    7.81354   11.38149    1.44050    0    0    0
     133       45        1 -1.04000000   15.15051    7.35822    0.04031    0    0    0
     134       45        2  0.52000000   14.34048    7.01744    0.41921    0    0    0
     135       45        2  0.52000000   15.50900    6.62434   -0.45952    0    0    0
     136       46        1 -1.04000000   16.70020    0.10604    4.77312    0    0    0
     137       46        2  0.52000000   16.70836    0.00917    5.72517    0    0    0
     138       46        2  0.52000000   17.59144   -0.11521    4.50172    0    0    0
     139       47        1 -1.04000000   15.95478   11.02936   13.61310    0    0    0
     140       47        2  0.52000000   15.29119   11.15413   14.29128    0    0    0
     141       47        2  0.52000000   16.75403   10.81651   14.09562    0    0    0
     142       48        1 -1.04000000    0.27714    7.15818   19.77467    0    0    0
     143       48        2  0.52000000    0.39442    6.64729   20.57535    0    0    0
     144       48        2  0.52000000   -0.67157    7.19453   19.64997    0    0    0
     145       49        1 -1.04000000    9.33805    7.03318   12.19294    0    0    0
     146       49        2  0.52000000    9.19212    7.10876   11.25016    0    0    0
     147       49        2  0.52000000    8.46983    6.85806   12.55690    0    0    0
     148       50        1 -1.04000000   15.96132   13.25232   17.70429    0    0    0
     149       50        2  0.52000000   15.28868   12.68678   18.08319    0    0    0
     150       50        2  0.52000000   16.75000   13.06091   18.21252    0    0    0
     151       51        1 -1.04000000   16.70245   15.84837   20.20267    0    0    0
     152       51        2  0.52000000   17.63521   15.80706   20.41266    0    0    0
     153       51        2  0.52000000   16.66234   16.34457   19.38468    0    0    0
     154       52        1 -1.04000000    6.89307    2.35874    8.88832    0    0    0
     155       52        2  0.52000000    7.42693    1.72945    8.40373    0    0    0
     156       52        2  0.52000000    6.68001    1.91181    9.70795    0    0    0
     157       53        1 -1.04000000   10.76389    9.68890    3.00843    0    0    0
     158       53        2  0.52000000   10.51852   10.60737    2.89858    0    0    0
     159       53        2  0.52000000   11.71759    9.70373    3.09300    0    0    0
     160       54        1 -1.04000000    8.05583   16.32857    6.20379    0    0    0
     161       54        2  0.52000000    8.33421   16.14099    5.30759    0    0    0
     162       54        2  0.52000000    7.60996   15.53044    6.48862    0    0    0
     163       55        1 -1.04000000    9.33979   12.10861    5.84079    0    0    0
     164       55        2  0.52000000    8.46131   12.40700    5.60608    0    0    0
     165       55        2  0.52000000    9.19890   11.48439    6.55313    0    0    0
     166       56        1 -1.04000000    1.80145   14.25558   14.78124    0    0    0
     167       56        2  0.52000000    1.73279   14.11552   15.72544    0    0    0
     168       56        2  0.52000000    2.46576   13.62890   14.49333    0    0    0
     169       57        1 -1.04000000    1.11620    3.73538    6.73717    0    0    0
     170       57        2  0.52000000    0.49616    4.45327    6.61051    0    0    0
     171       57        2  0.52000000    1.38764    3.81135    7.65231    0    0    0
     172       58        1 -1.04000000    9.74154    8.88697   20.27023    0    0    0
     173       58        2  0.52000000    9.67258    9.62706   19.66743    0    0    0
     174       58        2  0.52000000   10.58588    8.48597   20.06234    0    0    0
     175       59        1 -1.04000000   16.66081   10.19066   18.03471    0    0    0
     176       59        2  0.52000000   17.09372    9.64213   18.68859    0    0    0
     177       59        2  0.52000000   17.24547   10.16721   17.27671    0    0    0
     178       60        1 -1.04000000    4.98515   15.69482   11.24341    0    0    0
     179       60        2  0.52000000    5.18263   15.68783   10.30704    0    0    0
     180       60        2  0.52000000    4.83221   16.61735   11.44955    0    0    0
     181       61        1 -1.04000000    2.93727   15.73001    1.72473    0    0    0
     182       61        2  0.52000000    3.08758   15.58936    2.65933    0    0    0
     183       61        2  0.52000000    2.97514   16.68063    1.61595    0    0    0
     184       62        1 -1.04000000    5.00565   10.03417   10.38910    0    0    0
     185       62        2  0.52000000    4.61885   10.63657    9.75401    0    0    0
     186       62        2  0.52000000    5.37549    9.32926    9.85689    0    0    0
     187       63        1 -1.04000000    7.74207   15.27750   10.90476    0    0    0
     188       63        2  0.52000000    7.94800   14.47837   10.42017    0    0    0
     189       63        2  0.52000000    8.30992   15.24413   11.67506    0    0    0
     190       64        1 -1.04000000   11.76947   17.00368   12.68466    0    0    0
     191       64        2  0.52000000   11.53581   16.75175   13.57784    0    0    0
     192       64        2  0.52000000   12.69473   17.24456   12.73750    0    0    0
     193       65        1 -1.04000000   13.29359    9.85235   11.78880    0    0    0
     194       65        2  0.52000000   12.67561    9.37780   12.34445    0    0    0
     195       65        2  0.52000000   13.03080   10.76984   11.86675    0    0    0
     196       66        1 -1.04000000    3.86773    4.33050    1.83914    0    0    0
     197       66        2  0.52000000    3.61643    3.94664    2.67899    0    0    0
     198       66        2  0.52000000    4.51584    3.72286    1.48187    0    0    0
     199       67        1 -1.04000000   20.01622   17.71277   18.73573    0    0    0
     200       67        2  0.52000000   20.35977   17.70669   19.62892    0    0    0
     201       67        2  0.52000000   19.62401   18.58054   18.63535    0    0    0
     202       68        1 -1.04000000   18.29890   -0.11566   17.22335    0    0    0
     203       68        2  0.52000000   17.79742    0.69661   17.29103    0    0    0
     204       68        2  0.52000000   17.90368   -0.58095   16.48562    0    0    0
     205       69        1 -1.04000000   12.68981    1.18297   15.84866    0    0    0
     206       69        2  0.52000000   12.78339    0.81983   16.72913    0    0    0
     207       69        2  0.52000000   13.52680    0.99719   15.42221    0    0    0
     208       70        1 -1.04000000   17.83685    4.30549   11.18073    0    0    0
     209       70        2  0.52000000   18.15711    3.49448   11.57513    0    0    0
     210       70        2  0.52000000   18.00603    4.20003   10.24415    0    0    0
     211       71        1 -1.04000000    6.85921    0.87417   16.65802    0    0    0
     212       71        2  0.52000000    7.07636    0.35155   17.42975    0    0    0
     213       71        2  0.52000000    7.06443    1.77428   16.91223    0    0    0
     214       72        1 -1.04000000    0.26145   -0.16827   13.76350    0    0    0
     215       72        2  0.52000000   -0.42157    0.45962   13.52880    0    0    0
     216       72        2  0.52000000    0.16012   -0.29135   14.70770    0    0    0
     217       73        1 -1.04000000   16.86568   15.74529    3.73603    0    0    0
     218       73        2  0.52000000   16.66304   15.78153    4.67062    0    0    0
     219       73        2  0.52000000   17.47128   16.47318    3.59335    0    0    0
     220       74        1 -1.04000000    6.23655   10.95656    6.30783    0    0    0
     221       74        2  0.52000000    5.36548   10.58099    6.18117    0    0    0
     222       74        2  0.52000000    6.39797   11.46244    5.51099    0    0    0
     223       75        1 -1.04000000    0.66060   16.81734   17.06359    0    0    0
     224       75        2  0.52000000    1.15275   17.36718   17.67294    0    0    0
     225       75        2  0.52000000    1.18666   16.81548   16.26347    0    0    0
     226       76        1 -1.04000000    3.93733   20.38478   16.97519    0    0    0
     227       76        2  0.52000000    3.81659   19.72658   16.29105    0    0    0
     228       76        2  0.52000000    4.24609   19.88863   17.73376    0    0    0
     229       77        1 -1.04000000   10.11745   19.00116   15.62743    0    0    0
     230       77        2  0.52000000   10.58926   18.66470   16.38904    0    0    0
     231       77        2  0.52000000    9.29329   19.33414   15.98353    0    0    0
     232       78        1 -1.04000000    0.14634   14.34863    8.90179    0    0    0
     233       78        2  0.52000000   -0.74035   14.14921    9.20155    0    0    0
     234       78        2  0.52000000    0.59401   13.50217    8.89665    0    0    0
     235       79        1 -1.04000000   15.30413    4.77715   16.10220    0    0    0
     236       79        2  0.52000000   15.06699    5.07763   15.22509    0    0    0
     237       79        2  0.52000000   14.62888    5.14522   16.67272    0    0    0
     238       80        1 -1.04000000    3.73762   12.16409    2.23839    0    0    0
     239       80        2  0.52000000    3.74123   12.16630    1.28140    0    0    0
     240       80        2  0.52000000    4.52115   11.66960    2.48021    0    0    0
     241       81        1 -1.04000000    7.73264   16.22452   16.17524    0    0    0
     242       81        2  0.52000000    8.68526   16.30054   16.22604    0    0    0
     243       81        2  0.52000000    7.58210   15.47493   15.59871    0    0    0
     244       82        1 -1.04000000    5.80976    0.17149    7.29496    0    0    0
     245       82        2  0.52000000    5.57931    0.17965    6.36616    0    0    0
     246       82        2  0.52000000    6.61093   -0.35114    7.33887    0    0    0
     247       83        1 -1.04000000    6.84683    9.28694    1.21635    0    0    0
     248       83        2  0.52000000    6.80091    8.34455    1.37651    0    0    0
     249       83        2  0.52000000    7.35226    9.36851    0.40714    0    0    0
     250       84        1 -1.04000000   14.93226   17.70173    9.75700    0    0    0
     251       84        2  0.52000000   14.93198   17.68903   10.71392    0    0    0
     252       84        2  0.52000000   15.13576   18.60924    9.52909    0    0    0
     253       85        1 -1.04000000   19.16593   16.65279   15.06718    0    0    0
     254       85        2  0.52000000   18.69561   17.20719   15.68951    0    0    0
     255       85        2  0.52000000   19.13846   17.14003   14.24331    0    0    0
     256       86        1 -1.04000000   16.24069    4.79024   13.77491    0    0    0
     257       86        2  0.52000000   16.13507    5.74124   13.79185    0    0    0
     258       86        2  0.52000000   15.62423    4.46853   14.43325    0    0    0
     259       87        1 -1.04000000    5.99569    0.94178   13.61374    0    0    0
     260       87        2  0.52000000    5.59159    0.40085   14.29193    0    0    0
     261       87        2  0.52000000    6.41272    1.65737   14.09433    0    0    0
     262       88        1 -1.04000000   14.90941    0.69766   18.76981    0    0    0
     263       88        2  0.52000000   14.86305    0.74104   19.72470    0    0    0
     264       88        2  0.52000000   15.22754    1.56130   18.50549    0    0    0
     265       89        1 -1.04000000    3.67061    9.95365   11.20484    0    0    0
     266       89        2  0.52000000    3.89721   10.67263   10.61529    0    0    0
     267       89        2  0.52000000    4.43217    9.37371   11.17987    0    0    0
     268       90        1 -1.04000000   10.23899    5.20096   10.23473    0    0    0
     269       90        2  0.52000000   10.21822    5.20506    9.27796    0    0    0
     270       90        2  0.52000000    9.54279    4.59398   10.48731    0    0    0
     271       91        1 -1.04000000   20.27199   11.79064   19.81347    0    0    0
     272       91        2  0.52000000   20.13285   11.86115   20.75768    0    0    0
     273       91        2  0.52000000   19.59516   12.34821   19.42885    0    0    0
     274       92        1 -1.04000000    7.83076    5.02017    3.35150    0    0    0
     275       92        2  0.52000000    7.89491    4.25871    2.77538    0    0    0
     276       92        2  0.52000000    8.27433    5.72112    2.87312    0    0    0
     277       93        1 -1.04000000    9.10544   -0.36414   11.09428    0    0    0
     278       93        2  0.52000000    9.63593    0.43075   11.14508    0    0    0
     279       93        2  0.52000000    8.25862   -0.06661   10.76065    0    0    0
     280       94        1 -1.04000000   11.32549    1.94167   10.79201    0    0    0
     281       94        2  0.52000000   11.24430    2.02179   11.74219    0    0    0
     282       94        2  0.52000000   10.43021    2.03654   10.46580    0    0    0
     283       95        1 -1.04000000    2.80139    4.90551   14.67716    0    0    0
     284       95        2  0.52000000    2.45913    5.01505   15.56412    0    0    0
     285       95        2  0.52000000    3.73948    5.07944   14.75872    0    0    0
     286       96        1 -1.04000000    3.66836    8.20642    8.99701    0    0    0
     287       96        2  0.52000000    3.76552    7.25497    9.03088    0    0    0
     288       96        2  0.52000000    4.56612    8.53861    8.97211    0    0    0
     289       97        1 -1.04000000    7.05520   14.62303   19.08630    0    0    0
     290       97        2  0.52000000    7.72186   15.29263   18.93450    0    0    0
     291       97        2  0.52000000    6.22294   15.08434   18.97919    0    0    0
     292       98        1 -1.04000000   -0.35451   18.05943   12.84706    0    0    0
     293       98        2  0.52000000   -0.10158   18.09321   13.76941    0    0    0
     294       98        2  0.52000000    0.45609   17.84736   12.38352    0    0    0
     295       99        1 -1.04000000    3.13287    0.64376    0.91033    0    0    0
     296       99        2  0.52000000    2.40794    0.86871    1.49318    0    0    0
     297       99        2  0.52000000    3.45919    1.48753    0.59649    0    0    0
     298      100        1 -1.04000000   11.94916   13.89155   19.37183    0    0    0
     299      100        2  0.52000000   11.95309   14.78009   19.01639    0    0    0
     300      100        2  0.52000000   12.09776   13.32836   18.61178    0    0    0
     301      101        1 -1.04000000   19.61882   15.97295    6.91892    0    0    0
     302      101        2  0.52000000   20.27407   16.51404    6.47880    0    0    0
     303      101        2  0.52000000   20.10710   15.51301    7.60228    0    0    0
     304      102        1 -1.04000000    7.24308   13.78918    3.77849    0    0    0
     305      102        2  0.52000000    6.28982   13.72159    3.82929    0    0    0
     306      102        2  0.52000000    7.46710   14.48923    4.39223    0    0    0
     307      103        1 -1.04000000    2.20496   11.24853    0.77903    0    0    0
     308      103        2  0.52000000    1.56373   11.46002    1.45722    0    0    0
     309      103        2  0.52000000    2.23131   10.29145    0.76374    0    0    0
     310      104        1 -1.04000000    2.30577   11.92082    9.77014    0    0    0
     311      104        2  0.52000000    2.27622   11.91846   10.72668    0    0    0
     312      104        2  0.52000000    1.41801   12.16073    9.50319    0    0    0
     313      105        1 -1.04000000   16.36720    8.90524    8.09373    0    0    0
     314      105        2  0.52000000   16.04386    9.74576    7.76994    0    0    0
     315      105        2  0.52000000   15.58893    8.34900    8.13633    0    0    0
     316      106        1 -1.04000000   15.61009    1.97606    8.99983    0    0    0
     317      106        2  0.52000000   16.14987    2.74012    8.79809    0    0    0
     318      106        2  0.52000000   16.24004    1.28382    9.20208    0    0    0
     319      107        1 -1.04000000    9.95630   17.35374    2.84013    0    0    0
     320      107        2  0.52000000    9.27381   16.77992    3.18768    0    0    0
     321      107        2  0.52000000   10.76989   16.86633    2.97219    0    0    0
     322      108        1 -1.04000000    8.00635   16.69449    9.24337    0    0    0
     323      108        2  0.52000000    7.55106   17.52791    9.36163    0    0    0
     324      108        2  0.52000000    8.44259   16.77760    8.39501    0    0    0
     325      109        1 -1.04000000    4.84033   14.33981   13.89211    0    0    0
     326      109        2  0.52000000    4.67395   13.84274   14.69279    0    0    0
     327      109        2  0.52000000    5.48572   13.81745   13.41509    0    0    0
     328      110        1 -1.04000000   17.87985    1.33871    1.15310    0    0    0
     329      110        2  0.52000000   17.86936    1.07559    0.23304    0    0    0
     330      110        2  0.52000000   18.25079    0.58570    1.61386    0    0    0
     331      111        1 -1.04000000    1.07699    7.61815    7.97061    0    0    0
     332      111        2  0.52000000    1.61286    8.34887    7.66282    0    0    0
     333      111        2  0.52000000    0.31014    8.03298    8.36657    0    0    0
     334      112        1 -1.04000000    8.07541   17.61813    5.96698    0    0    0
     335      112        2  0.52000000    8.34623   18.20988    6.66864    0    0    0
     336      112        2  0.52000000    7.57836   18.17199    5.36439    0    0    0
     337      113        1 -1.04000000   17.68796   12.17563   10.84384    0    0    0
     338      113        2  0.52000000   18.09557   12.35137   11.69167    0    0    0
     339      113        2  0.52000000   18.21648   11.47300   10.46449    0    0    0