Created by /global/cfs/cdirs/m5056/rsb/codes/ATLAS-toolkit/scripts/createLammpsInput.pl on Thu Apr  9 14:47:55 2026

         834 atoms
         536 bonds
         258 angles

           6 atom types
           2 bond types
           1 angle types

		   0.000000  20.250050 xlo xhi
		   0.000000  20.250050 ylo yhi
		   0.000000  20.250050 zlo zhi

Masses

    1 1.5999E+01 # OW     
    2 1.0080E+00 # HW     
    3 6.9410E+00 # Li     
    4 3.9948E+01 # K_     
    5 1.5999E+01 # O_3    
    6 1.0080E+00 # H_     

Atoms

       1        1        1 -1.04000000   12.93267   11.13034   10.63795    0    0    0
       2        1        2  0.52000000   13.30114   10.28603   10.89721    0    0    0
       3        1        2  0.52000000   12.76618   11.58362   11.46484    0    0    0
       4        2        1 -1.04000000    1.71209    7.99838   14.26402    0    0    0
       5        2        2  0.52000000    2.20535    8.75184   13.94023    0    0    0
       6        2        2  0.52000000    2.08256    7.24978   13.79575    0    0    0
       7        3        1 -1.04000000    0.94868   13.35636    9.15158    0    0    0
       8        3        2  0.52000000    0.62268   13.02308    8.31582    0    0    0
       9        3        2  0.52000000    1.42863   12.62056    9.53260    0    0    0
      10        4        1 -1.04000000    4.20491    7.76801    8.76168    0    0    0
      11        4        2  0.52000000    4.23777    7.80102    9.71755    0    0    0
      12        4        2  0.52000000    3.55732    8.43097    8.52077    0    0    0
      13        5        1 -1.04000000   18.85343    2.83841    2.67595    0    0    0
      14        5        2  0.52000000   19.13273    2.39484    3.47663    0    0    0
      15        5        2  0.52000000   19.01384    3.76674    2.84742    0    0    0
      16        6        1 -1.04000000   18.72216    5.27429   16.98678    0    0    0
      17        6        2  0.52000000   18.95966    4.71667   17.72739    0    0    0
      18        6        2  0.52000000   19.31818    5.00904   16.28583    0    0    0
      19        7        1 -1.04000000    5.19599    0.24708    9.23053    0    0    0
      20        7        2  0.52000000    4.96109    0.36611    8.31047    0    0    0
      21        7        2  0.52000000    4.84292   -0.61319    9.45900    0    0    0
      22        8        1 -1.04000000   11.75832   10.10770   17.71261    0    0    0
      23        8        2  0.52000000   11.66174   10.27052   18.65070    0    0    0
      24        8        2  0.52000000   12.57994    9.62179   17.63670    0    0    0
      25        9        1 -1.04000000    2.82745   19.03478    0.34874    0    0    0
      26        9        2  0.52000000    2.85312   19.67882   -0.35866    0    0    0
      27        9        2  0.52000000    3.31943   18.28640    0.00992    0    0    0
      28       10        1 -1.04000000    5.95713    5.01253    7.61192    0    0    0
      29       10        2  0.52000000    6.54516    4.45243    8.11825    0    0    0
      30       10        2  0.52000000    5.49772    5.53504    8.26983    0    0    0
      31       11        1 -1.04000000   13.08062   15.72084   15.26109    0    0    0
      32       11        2  0.52000000   12.95028   15.62075   14.31831    0    0    0
      33       11        2  0.52000000   12.96909   16.65841   15.42060    0    0    0
      34       12        1 -1.04000000    1.72223   13.14892    1.76919    0    0    0
      35       12        2  0.52000000    2.29123   13.61878    2.37855    0    0    0
      36       12        2  0.52000000    1.98654   12.23231    1.85225    0    0    0
      37       13        1 -1.04000000   17.20950    4.89944   15.68599    0    0    0
      38       13        2  0.52000000   16.63327    5.65675   15.78742    0    0    0
      39       13        2  0.52000000   17.15723    4.44381   16.52658    0    0    0
      40       14        1 -1.04000000    7.85256   12.75229    9.73636    0    0    0
      41       14        2  0.52000000    8.04194   12.58126   10.65872    0    0    0
      42       14        2  0.52000000    8.10550   13.66644    9.60492    0    0    0
      43       15        1 -1.04000000    0.98571    7.82876   16.35082    0    0    0
      44       15        2  0.52000000    0.79713    7.43525   15.49909    0    0    0
      45       15        2  0.52000000    1.21716    8.73599   16.15009    0    0    0
      46       16        1 -1.04000000    6.96125    6.25941   14.28949    0    0    0
      47       16        2  0.52000000    7.41220    6.37775   13.45373    0    0    0
      48       16        2  0.52000000    6.62655    5.36284   14.25677    0    0    0
      49       17        1 -1.04000000   19.11277    0.28256    0.75496    0    0    0
      50       17        2  0.52000000   18.25820    0.17614    1.17237    0    0    0
      51       17        2  0.52000000   19.62903   -0.45870    1.07268    0    0    0
      52       18        1 -1.04000000    3.03208    0.69877    2.24664    0    0    0
      53       18        2  0.52000000    3.32485    1.59982    2.38170    0    0    0
      54       18        2  0.52000000    2.64307    0.70141    1.37166    0    0    0
      55       19        1 -1.04000000    5.81705   16.10159    5.32986    0    0    0
      56       19        2  0.52000000    6.05230   15.22102    5.03816    0    0    0
      57       19        2  0.52000000    6.13066   16.67739    4.63198    0    0    0
      58       20        1 -1.04000000    9.83148   11.64983    3.03980    0    0    0
      59       20        2  0.52000000   10.49849   11.90982    2.40470    0    0    0
      60       20        2  0.52000000    9.67002   12.44035    3.55549    0    0    0
      61       21        1 -1.04000000    3.28129   18.27083   10.98855    0    0    0
      62       21        2  0.52000000    2.65038   18.11122   11.69022    0    0    0
      63       21        2  0.52000000    3.06833   17.61795   10.32123    0    0    0
      64       22        1 -1.04000000    4.09161    9.62548    1.93719    0    0    0
      65       22        2  0.52000000    4.02887   10.08000    2.77703    0    0    0
      66       22        2  0.52000000    3.87951   10.29452    1.28578    0    0    0
      67       23        1 -1.04000000    4.31162   15.98158   18.23486    0    0    0
      68       23        2  0.52000000    4.29461   15.92924   17.27944    0    0    0
      69       23        2  0.52000000    3.39378   16.08918   18.48570    0    0    0
      70       24        1 -1.04000000   15.95766    4.19253   13.33725    0    0    0
      71       24        2  0.52000000   16.76268    4.05588   12.83813    0    0    0
      72       24        2  0.52000000   15.27966    3.75158   12.82462    0    0    0
      73       25        1 -1.04000000    9.88105    4.66286   15.84255    0    0    0
      74       25        2  0.52000000    9.39677    5.23371   16.43875    0    0    0
      75       25        2  0.52000000   10.72218    5.10343   15.71870    0    0    0
      76       26        1 -1.04000000   10.20368    0.08794    4.67847    0    0    0
      77       26        2  0.52000000   10.45897   -0.49704    5.39154    0    0    0
      78       26        2  0.52000000    9.33735    0.40909    4.92999    0    0    0
      79       27        1 -1.04000000    2.28640    1.12178   16.23611    0    0    0
      80       27        2  0.52000000    2.18710    1.29262   15.29973    0    0    0
      81       27        2  0.52000000    1.52650    0.58561   16.46416    0    0    0
      82       28        1 -1.04000000    0.33196    2.14500    3.14623    0    0    0
      83       28        2  0.52000000    0.17168    1.83217    2.25612    0    0    0
      84       28        2  0.52000000   -0.50364    2.02284    3.59765    0    0    0
      85       29        1 -1.04000000    5.02874    4.31971    7.22262    0    0    0
      86       29        2  0.52000000    4.72090    3.45146    7.48188    0    0    0
      87       29        2  0.52000000    5.25037    4.22883    6.29550    0    0    0
      88       30        1 -1.04000000    0.29744   15.12444   11.77944    0    0    0
      89       30        2  0.52000000   -0.55713   15.53865   11.89770    0    0    0
      90       30        2  0.52000000    0.25969   14.33691   12.32286    0    0    0
      91       31        1 -1.04000000   15.71036   17.03391   11.25992    0    0    0
      92       31        2  0.52000000   15.64131   17.01382   10.30562    0    0    0
      93       31        2  0.52000000   16.64833   16.95227   11.43446    0    0    0
      94       32        1 -1.04000000   11.21595   16.73265    6.18573    0    0    0
      95       32        2  0.52000000   10.57427   17.33310    6.56463    0    0    0
      96       32        2  0.52000000   11.20978   16.93425    5.24965    0    0    0
      97       33        1 -1.04000000    6.99749   18.02131   16.39005    0    0    0
      98       33        2  0.52000000    7.68498   17.66524   15.82753    0    0    0
      99       33        2  0.52000000    6.31753   18.31345   15.78241    0    0    0
     100       34        1 -1.04000000   15.65459    0.10935   16.85394    0    0    0
     101       34        2  0.52000000   15.98583    0.24871   17.74091    0    0    0
     102       34        2  0.52000000   16.35959   -0.35806   16.40514    0    0    0
     103       35        1 -1.04000000    7.67404    6.85426    0.84153    0    0    0
     104       35        2  0.52000000    8.55616    6.85426    0.47042    0    0    0
     105       35        2  0.52000000    7.76980    7.29148    1.68805    0    0    0
     106       36        1 -1.04000000    8.70013   17.83888    8.80838    0    0    0
     107       36        2  0.52000000    8.82700   17.89627    9.75519    0    0    0
     108       36        2  0.52000000    9.47287   18.26485    8.43643    0    0    0
     109       37        1 -1.04000000   18.22390   10.13392   12.29075    0    0    0
     110       37        2  0.52000000   17.84512   10.63174   11.56649    0    0    0
     111       37        2  0.52000000   17.93099    9.23435   12.14275    0    0    0
     112       38        1 -1.04000000   11.17085   18.69143   13.16792    0    0    0
     113       38        2  0.52000000   10.98076   18.82197   12.23912    0    0    0
     114       38        2  0.52000000   10.84839   19.48660   13.59296    0    0    0
     115       39        1 -1.04000000   18.28255   18.15774   17.78118    0    0    0
     116       39        2  0.52000000   18.31070   17.95382   18.71578    0    0    0
     117       39        2  0.52000000   17.40674   17.88844   17.50304    0    0    0
     118       40        1 -1.04000000   13.16649   10.33731    1.89461    0    0    0
     119       40        2  0.52000000   12.67644   10.15127    2.69529    0    0    0
     120       40        2  0.52000000   13.15706    9.51142    1.41009    0    0    0
     121       41        1 -1.04000000    9.18813   13.67995   19.12154    0    0    0
     122       41        2  0.52000000    8.31441   13.73415   18.73488    0    0    0
     123       41        2  0.52000000    9.49746   14.58590   19.14358    0    0    0
     124       42        1 -1.04000000   16.80066    8.15294   15.70088    0    0    0
     125       42        2  0.52000000   16.48756    7.52824   16.35476    0    0    0
     126       42        2  0.52000000   17.71178    8.31882   15.94437    0    0    0
     127       43        1 -1.04000000   18.87090   13.21975    4.29605    0    0    0
     128       43        2  0.52000000   18.99292   13.48025    3.38331    0    0    0
     129       43        2  0.52000000   19.13619   12.30000    4.32065    0    0    0
     130       44        1 -1.04000000   16.07152   12.66142    5.81875    0    0    0
     131       44        2  0.52000000   16.61425   13.10157    6.47263    0    0    0
     132       44        2  0.52000000   15.31423   13.23701    5.70861    0    0    0
     133       45        1 -1.04000000   12.74729   13.76707   14.81430    0    0    0
     134       45        2  0.52000000   13.06118   14.62812   14.53878    0    0    0
     135       45        2  0.52000000   13.19152   13.60481   15.64692    0    0    0
     136       46        1 -1.04000000   11.70349    7.75014   14.04747    0    0    0
     137       46        2  0.52000000   12.64059    7.55671   14.06441    0    0    0
     138       46        2  0.52000000   11.65592    8.69315   13.88811    0    0    0
     139       47        1 -1.04000000   -0.32876   -0.10453   19.18329    0    0    0
     140       47        2  0.52000000   -0.24041    0.46136   18.41660    0    0    0
     141       47        2  0.52000000    0.56916   -0.35683   19.40011    0    0    0
     142       48        1 -1.04000000    6.12220    6.96418   17.63070    0    0    0
     143       48        2  0.52000000    5.68578    7.71498   18.03280    0    0    0
     144       48        2  0.52000000    6.19201    6.32084   18.33651    0    0    0
     145       49        1 -1.04000000    9.70991   -0.22824    9.12789    0    0    0
     146       49        2  0.52000000   10.10886    0.51762    9.57552    0    0    0
     147       49        2  0.52000000   10.18123   -0.28938    8.29659    0    0    0
     148       50        1 -1.04000000    8.70778   17.18364    9.18299    0    0    0
     149       50        2  0.52000000    9.17408   16.39753    9.46661    0    0    0
     150       50        2  0.52000000    9.11814   17.41883    8.35040    0    0    0
     151       51        1 -1.04000000   -0.15669    8.71963   10.77764    0    0    0
     152       51        2  0.52000000   -0.26839    8.85130   11.71893    0    0    0
     153       51        2  0.52000000    0.42508    9.42906   10.50343    0    0    0
     154       52        1 -1.04000000   19.02748    6.36554   14.13500    0    0    0
     155       52        2  0.52000000   19.48837    5.58856   14.45080    0    0    0
     156       52        2  0.52000000   18.48415    6.04589   13.41420    0    0    0
     157       53        1 -1.04000000    3.00529   10.66720   11.79550    0    0    0
     158       53        2  0.52000000    3.42818   10.84512   12.63535    0    0    0
     159       53        2  0.52000000    2.56653   11.48768   11.56915    0    0    0
     160       54        1 -1.04000000   14.18366    4.34466    1.00885    0    0    0
     161       54        2  0.52000000   13.65418    3.94547    1.69888    0    0    0
     162       54        2  0.52000000   14.16216    3.70986    0.29226    0    0    0
     163       55        1 -1.04000000   11.11505    1.71199   12.76248    0    0    0
     164       55        2  0.52000000   10.91689    1.65622   13.69708    0    0    0
     165       55        2  0.52000000   10.96806    2.63179   12.54044    0    0    0
     166       56        1 -1.04000000    0.22501   -0.29175   10.12983    0    0    0
     167       56        2  0.52000000    0.42261    0.64463   10.12983    0    0    0
     168       56        2  0.52000000   -0.64762   -0.35288    9.74034    0    0    0
     169       57        1 -1.04000000   -0.36774   -0.08576    5.89993    0    0    0
     170       57        2  0.52000000    0.03804   -0.16578    6.76294    0    0    0
     171       57        2  0.52000000    0.32970    0.25154    5.33713    0    0    0
     172       58        1 -1.04000000   10.02436   17.68652    1.76819    0    0    0
     173       58        2  0.52000000   10.00308   17.70715    2.72473    0    0    0
     174       58        2  0.52000000    9.97256   18.60633    1.50708    0    0    0
     175       59        1 -1.04000000    8.08123    4.73049    7.27087    0    0    0
     176       59        2  0.52000000    8.57447    4.92779    6.47486    0    0    0
     177       59        2  0.52000000    7.34430    5.34172    7.25428    0    0    0
     178       60        1 -1.04000000    2.02792   13.71639   18.73282    0    0    0
     179       60        2  0.52000000    2.16768   13.64711   19.67702    0    0    0
     180       60        2  0.52000000    1.80440   14.63650   18.59016    0    0    0
     181       61        1 -1.04000000    9.69982   17.95545   17.75402    0    0    0
     182       61        2  0.52000000    9.68503   17.91129   18.70988    0    0    0
     183       61        2  0.52000000   10.61515   18.13326   17.53610    0    0    0
     184       62        1 -1.04000000   11.62732    4.02794   15.88630    0    0    0
     185       62        2  0.52000000   12.09099    3.24627   16.18606    0    0    0
     186       62        2  0.52000000   12.28170    4.72579   15.92764    0    0    0
     187       63        1 -1.04000000    0.99825   12.63954    5.15057    0    0    0
     188       63        2  0.52000000    0.30627   13.29866    5.20137    0    0    0
     189       63        2  0.52000000    1.69547   13.06180    4.64806    0    0    0
     190       64        1 -1.04000000   19.03866   14.36533    0.13282    0    0    0
     191       64        2  0.52000000   19.47022   13.96860   -0.62363    0    0    0
     192       64        2  0.52000000   18.49112   13.66607    0.49081    0    0    0
     193       65        1 -1.04000000   18.23790   17.69043    0.01310    0    0    0
     194       65        2  0.52000000   18.42004   18.55353   -0.35801    0    0    0
     195       65        2  0.52000000   17.34206   17.75604    0.34491    0    0    0
     196       66        1 -1.04000000    1.34067    5.81002    1.02123    0    0    0
     197       66        2  0.52000000    0.96942    6.26368    0.26478    0    0    0
     198       66        2  0.52000000    0.68991    5.92631    1.71399    0    0    0
     199       67        1 -1.04000000   17.99369    7.93198   18.61538    0    0    0
     200       67        2  0.52000000   17.67908    8.70848   19.07789    0    0    0
     201       67        2  0.52000000   18.32723    7.35953   19.30674    0    0    0
     202       68        1 -1.04000000   14.26638   14.95902   19.28278    0    0    0
     203       68        2  0.52000000   14.40607   15.26426   18.38659    0    0    0
     204       68        2  0.52000000   13.32755   14.77673   19.33063    0    0    0
     205       69        1 -1.04000000    6.84617    1.35709   15.96226    0    0    0
     206       69        2  0.52000000    6.50170    0.62169   16.46860    0    0    0
     207       69        2  0.52000000    7.65213    1.02122   15.56914    0    0    0
     208       70        1 -1.04000000   18.14125   19.22134    5.71077    0    0    0
     209       70        2  0.52000000   18.63057   18.65481    6.30697    0    0    0
     210       70        2  0.52000000   17.22818   19.12385    5.98227    0    0    0
     211       71        1 -1.04000000   12.06055   10.05418   15.61790    0    0    0
     212       71        2  0.52000000   12.48555   10.50435   16.34767    0    0    0
     213       71        2  0.52000000   11.45390    9.44147   16.03443    0    0    0
     214       72        1 -1.04000000   14.64398   15.08173   -0.13845    0    0    0
     215       72        2  0.52000000   14.91919   15.03251    0.77680    0    0    0
     216       72        2  0.52000000   15.43684   14.88576   -0.63835    0    0    0
     217       73        1 -1.04000000    5.79217   10.05168   15.67329    0    0    0
     218       73        2  0.52000000    5.55211    9.53918   16.44502    0    0    0
     219       73        2  0.52000000    6.65572   10.40915   15.88169    0    0    0
     220       74        1 -1.04000000    1.14658    7.76919    8.72099    0    0    0
     221       74        2  0.52000000    1.21728    7.65908    9.66900    0    0    0
     222       74        2  0.52000000    0.63615    8.57173    8.61000    0    0    0
     223       75        1 -1.04000000    6.82771   13.91393   11.66013    0    0    0
     224       75        2  0.52000000    6.69428   13.49058   12.50796    0    0    0
     225       75        2  0.52000000    7.47802   14.59549   11.83190    0    0    0
     226       76        1 -1.04000000    9.00303    8.64610    5.83463    0    0    0
     227       76        2  0.52000000    8.68292    8.88303    6.70483    0    0    0
     228       76        2  0.52000000    9.31405    9.47087    5.46054    0    0    0
     229       77        1 -1.04000000   12.62048    7.01189   18.90822    0    0    0
     230       77        2  0.52000000   13.36134    6.87260   18.31867    0    0    0
     231       77        2  0.52000000   13.01818    7.11551   19.77311    0    0    0
     232       78        1 -1.04000000    6.24062    1.24352    0.18816    0    0    0
     233       78        2  0.52000000    5.94283    0.37939    0.47178    0    0    0
     234       78        2  0.52000000    5.81656    1.37709   -0.65994    0    0    0
     235       79        1 -1.04000000   20.05272   20.01869   16.61338    0    0    0
     236       79        2  0.52000000   19.74297   20.71164   17.19624    0    0    0
     237       79        2  0.52000000   20.20431   19.26967   17.19038    0    0    0
     238       80        1 -1.04000000    6.16091   15.73719    0.24009    0    0    0
     239       80        2  0.52000000    6.18043   15.74540   -0.71668    0    0    0
     240       80        2  0.52000000    5.65865   16.51740    0.47659    0    0    0
     241       81        1 -1.04000000   12.18108    2.91745    2.66385    0    0    0
     242       81        2  0.52000000   12.53425    2.85105    3.55081    0    0    0
     243       81        2  0.52000000   11.28467    3.23149    2.78534    0    0    0
     244       82        1 -1.04000000    6.07480   10.16553   11.34584    0    0    0
     245       82        2  0.52000000    5.36693    9.55960   11.12760    0    0    0
     246       82        2  0.52000000    6.55827   10.27487   10.52656    0    0    0
     247       83        1 -1.04000000   18.89169    3.63681   13.09467    0    0    0
     248       83        2  0.52000000   19.65402    4.12154   13.41047    0    0    0
     249       83        2  0.52000000   18.45428    4.24165   12.49486    0    0    0
     250       84        1 -1.04000000    1.21017   18.89384   10.31171    0    0    0
     251       84        2  0.52000000    1.34808   18.64138    9.39897    0    0    0
     252       84        2  0.52000000    0.44176   19.46478   10.28933    0    0    0
     253       85        1 -1.04000000    9.63647    5.98826    5.85748    0    0    0
     254       85        2  0.52000000   10.42824    6.29688    5.41735    0    0    0
     255       85        2  0.52000000    9.93529    5.71486    6.72517    0    0    0
     256       86        1 -1.04000000   11.96734   11.31106   12.23404    0    0    0
     257       86        2  0.52000000   12.13145   11.30234   11.29126    0    0    0
     258       86        2  0.52000000   11.90121   10.38660   12.47470    0    0    0
     259       87        1 -1.04000000   16.09260   18.37311    3.93058    0    0    0
     260       87        2  0.52000000   16.15500   17.63244    3.32778    0    0    0
     261       87        2  0.52000000   15.75240   17.99445    4.74164    0    0    0
     262       88        1 -1.04000000   11.30954    4.91176    7.22136    0    0    0
     263       88        2  0.52000000   11.25457    4.91420    6.26594    0    0    0
     264       88        2  0.52000000   10.43589    5.17404    7.51270    0    0    0
     265       89        1 -1.04000000   13.63827    6.14591    2.02145    0    0    0
     266       89        2  0.52000000   13.97572    5.35361    2.43886    0    0    0
     267       89        2  0.52000000   14.38601    6.50048    1.53970    0    0    0
     268       90        1 -1.04000000    5.31087    1.78737   14.10369    0    0    0
     269       90        2  0.52000000    4.94528    1.90082   13.22658    0    0    0
     270       90        2  0.52000000    4.74385    2.31181   14.66972    0    0    0
     271       91        1 -1.04000000    2.75195   12.09346   16.71305    0    0    0
     272       91        2  0.52000000    3.70708   12.05116   16.67071    0    0    0
     273       91        2  0.52000000    2.54097   11.85538   17.61623    0    0    0
     274       92        1 -1.04000000    4.64420    9.83931    4.98624    0    0    0
     275       92        2  0.52000000    5.21499   10.06180    4.25102    0    0    0
     276       92        2  0.52000000    5.14081   10.09889    5.76273    0    0    0
     277       93        1 -1.04000000   13.08341    1.36053   15.87485    0    0    0
     278       93        2  0.52000000   12.76217    1.10001   16.73786    0    0    0
     279       93        2  0.52000000   13.15442    0.53945   15.38729    0    0    0
     280       94        1 -1.04000000   11.19161    1.96662   15.66122    0    0    0
     281       94        2  0.52000000   11.56331    2.01626   16.54168    0    0    0
     282       94        2  0.52000000   10.24508    2.01712   15.79710    0    0    0
     283       95        1 -1.04000000   19.21478    0.28582    8.15741    0    0    0
     284       95        2  0.52000000   18.83321    0.25537    7.28030    0    0    0
     285       95        2  0.52000000   18.95202   -0.54119    8.56229    0    0    0
     286       96        1 -1.04000000   12.13507   14.36391    5.04395    0    0    0
     287       96        2  0.52000000   12.00736   13.70088    5.72213    0    0    0
     288       96        2  0.52000000   11.85757   13.93521    4.23392    0    0    0
     289       97        1 -1.04000000    8.22569   13.20030   -0.24808    0    0    0
     290       97        2  0.52000000    8.22178   13.24671    0.70778    0    0    0
     291       97        2  0.52000000    7.55253   12.55299   -0.45970    0    0    0
     292       98        1 -1.04000000   12.87801   14.35616    7.89576    0    0    0
     293       98        2  0.52000000   12.36874   13.66171    8.31317    0    0    0
     294       98        2  0.52000000   13.75326   13.98212    7.79108    0    0    0
     295       99        1 -1.04000000    0.87567    4.12352   15.65088    0    0    0
     296       99        2  0.52000000    0.37577    4.07024   16.46519    0    0    0
     297       99        2  0.52000000    1.74856    3.80624   15.88393    0    0    0
     298      100        1 -1.04000000    0.00496    8.75421    3.69642    0    0    0
     299      100        2  0.52000000    0.16094    9.69837    3.68795    0    0    0
     300      100        2  0.52000000   -0.16590    8.54742    4.61564    0    0    0
     301      101        1 -1.04000000   16.28154    0.26335    0.93689    0    0    0
     302      101        2  0.52000000   15.44366    0.18154    0.48179    0    0    0
     303      101        2  0.52000000   16.27479   -0.44489    1.58132    0    0    0
     304      102        1 -1.04000000   12.38884   11.01572    6.96592    0    0    0
     305      102        2  0.52000000   11.79623   10.35365    6.61049    0    0    0
     306      102        2  0.52000000   11.81493   11.63062    7.42359    0    0    0
     307      103        1 -1.04000000    3.04429   17.01812    1.38770    0    0    0
     308      103        2  0.52000000    2.38221   17.45576    0.85294    0    0    0
     309      103        2  0.52000000    3.57349   16.52612    0.75936    0    0    0
     310      104        1 -1.04000000   20.04972   13.36169   14.13895    0    0    0
     311      104        2  0.52000000   20.45113   12.97252   13.36224    0    0    0
     312      104        2  0.52000000   19.49915   12.66578   14.49881    0    0    0
     313      105        1 -1.04000000   16.35532    2.15308    5.94598    0    0    0
     314      105        2  0.52000000   15.85455    2.10866    6.76029    0    0    0
     315      105        2  0.52000000   15.79013    1.73826    5.29373    0    0    0
     316      106        1 -1.04000000    2.02506    5.61042    7.01421    0    0    0
     317      106        2  0.52000000    1.23926    6.15007    7.09878    0    0    0
     318      106        2  0.52000000    2.73568    6.23951    6.88701    0    0    0
     319      107        1 -1.04000000   17.77029   20.08268   13.69504    0    0    0
     320      107        2  0.52000000   17.52134   20.02669   14.61739    0    0    0
     321      107        2  0.52000000   18.70837   19.89063   13.68757    0    0    0
     322      108        1 -1.04000000   13.61472   15.95841    3.04933    0    0    0
     323      108        2  0.52000000   14.21394   15.36708    2.59422    0    0    0
     324      108        2  0.52000000   14.17134   16.67450    3.35645    0    0    0
     325      109        1 -1.04000000    2.06174   10.70646   10.74975    0    0    0
     326      109        2  0.52000000    2.45997   11.57662   10.74128    0    0    0
     327      109        2  0.52000000    1.47829   10.71692   11.50897    0    0    0
     328      110        1 -1.04000000    5.80795   16.92409   11.33160    0    0    0
     329      110        2  0.52000000    6.24351   17.73839   11.08051    0    0    0
     330      110        2  0.52000000    5.94854   16.33751   10.58790    0    0    0
     331      111        1 -1.04000000    4.30424   13.15012    9.19366    0    0    0
     332      111        2  0.52000000    4.11713   13.21368    8.25728    0    0    0
     333      111        2  0.52000000    3.57863   12.63620    9.54906    0    0    0
     334      112        1 -1.04000000   17.84764    9.15254    1.67424    0    0    0
     335      112        2  0.52000000   17.54020    9.26616    2.57336    0    0    0
     336      112        2  0.52000000   18.61216    8.58129    1.75240    0    0    0
     337      113        1 -1.04000000   18.13280    7.25674    0.26278    0    0    0
     338      113        2  0.52000000   17.44040    7.38692   -0.38489    0    0    0