Created by /global/cfs/cdirs/m5056/rsb/codes/ATLAS-toolkit/scripts/createLammpsInput.pl on Thu Apr  9 14:47:59 2026

         867 atoms
         558 bonds
         269 angles

           6 atom types
           2 bond types
           1 angle types

		   0.000000  20.249140 xlo xhi
		   0.000000  20.249140 ylo yhi
		   0.000000  20.249140 zlo zhi

Masses

    1 1.5999E+01 # OW     
    2 1.0080E+00 # HW     
    3 6.9410E+00 # Li     
    4 3.9948E+01 # K_     
    5 1.5999E+01 # O_3    
    6 1.0080E+00 # H_     

Atoms

       1        1        1 -1.04000000   13.09392   13.68920    6.78278    0    0    0
       2        1        2  0.52000000   13.24640   14.61218    6.58104    0    0    0
       3        1        2  0.52000000   12.65968   13.69862    7.63618    0    0    0
       4        2        1 -1.04000000    1.37904   14.07181   15.06145    0    0    0
       5        2        2  0.52000000    0.81755   14.43586   14.37731    0    0    0
       6        2        2  0.52000000    0.80342   13.49234   15.56125    0    0    0
       7        3        1 -1.04000000   -0.31774    1.95106    5.77808    0    0    0
       8        3        2  0.52000000   -0.22773    2.49586    6.55970    0    0    0
       9        3        2  0.52000000    0.54547    1.55308    5.66222    0    0    0
      10        4        1 -1.04000000   12.19440    7.74221    0.21989    0    0    0
      11        4        2  0.52000000   12.20707    8.69673    0.28757    0    0    0
      12        4        2  0.52000000   11.59853    7.56107   -0.50747    0    0    0
      13        5        1 -1.04000000    3.85469   14.67112    5.15271    0    0    0
      14        5        2  0.52000000    4.63274   14.76800    4.60399    0    0    0
      15        5        2  0.52000000    3.51257   15.56088    5.24330    0    0    0
      16        6        1 -1.04000000    3.18604   18.93148   14.66341    0    0    0
      17        6        2  0.52000000    2.43892   18.45642   15.02669    0    0    0
      18        6        2  0.52000000    3.37504   19.61210   15.30990    0    0    0
      19        7        1 -1.04000000   16.95651   17.87891   -0.36885    0    0    0
      20        7        2  0.52000000   16.46849   17.59234    0.40288    0    0    0
      21        7        2  0.52000000   17.57501   18.52875   -0.03403    0    0    0
      22        8        1 -1.04000000    9.70042    9.14635    6.79644    0    0    0
      23        8        2  0.52000000    9.69706    8.38732    7.37929    0    0    0
      24        8        2  0.52000000   10.60251    9.46633    6.82427    0    0    0
      25        9        1 -1.04000000   10.37962    8.90914   16.98475    0    0    0
      26        9        2  0.52000000    9.89998    9.51689   16.42223    0    0    0
      27        9        2  0.52000000    9.72040    8.57397   17.59303    0    0    0
      28       10        1 -1.04000000   15.09663    3.19194    0.32623    0    0    0
      29       10        2  0.52000000   15.43634    3.33133   -0.55752    0    0    0
      30       10        2  0.52000000   14.46704    2.47673    0.23130    0    0    0
      31       11        1 -1.04000000   12.64377    9.87784    8.89617    0    0    0
      32       11        2  0.52000000   13.45020    9.83497    8.38267    0    0    0
      33       11        2  0.52000000   12.90603   10.28718    9.72115    0    0    0
      34       12        1 -1.04000000    4.09585   20.36767   10.90927    0    0    0
      35       12        2  0.52000000    4.66261   19.68749   11.27256    0    0    0
      36       12        2  0.52000000    3.24154   19.94484   10.81817    0    0    0
      37       13        1 -1.04000000   15.10141    0.65136   15.85588    0    0    0
      38       13        2  0.52000000   14.34130    1.18333   15.62117    0    0    0
      39       13        2  0.52000000   15.55728    1.16530   16.52295    0    0    0
      40       14        1 -1.04000000    1.09363    6.36943    1.91422    0    0    0
      41       14        2  0.52000000    0.23831    6.02728    2.17347    0    0    0
      42       14        2  0.52000000    1.66805    5.60329    1.91231    0    0    0
      43       15        1 -1.04000000    7.67691   16.78838    0.05858    0    0    0
      44       15        2  0.52000000    7.94988   17.58048    0.52109    0    0    0
      45       15        2  0.52000000    8.37321   16.63114   -0.57967    0    0    0
      46       16        1 -1.04000000   17.83170    6.88860   13.33447    0    0    0
      47       16        2  0.52000000   18.50480    6.42635   12.83534    0    0    0
      48       16        2  0.52000000   17.66350    7.68505   12.83019    0    0    0
      49       17        1 -1.04000000    3.34863    4.12838   14.12074    0    0    0
      50       17        2  0.52000000    3.16402    3.52402   13.40205    0    0    0
      51       17        2  0.52000000    2.48735    4.34760   14.47721    0    0    0
      52       18        1 -1.04000000   14.18705   19.71374   11.18887    0    0    0
      53       18        2  0.52000000   14.09256   19.82715   10.24332    0    0    0
      54       18        2  0.52000000   13.72039   20.45910   11.56781    0    0    0
      55       19        1 -1.04000000   13.19812   17.66446    8.97236    0    0    0
      56       19        2  0.52000000   13.24129   18.31381    9.67403    0    0    0
      57       19        2  0.52000000   12.56060   18.02173    8.35361    0    0    0
      58       20        1 -1.04000000    0.26163   12.19766   12.78767    0    0    0
      59       20        2  0.52000000    0.26101   12.05841   13.73448    0    0    0
      60       20        2  0.52000000   -0.52264   11.74393   12.47785    0    0    0
      61       21        1 -1.04000000   -0.18202    5.87941   12.67607    0    0    0
      62       21        2  0.52000000    0.67047    5.59824   13.00781    0    0    0
      63       21        2  0.52000000   -0.48846    6.52234   13.31612    0    0    0
      64       22        1 -1.04000000    8.82443    4.82474    3.30177    0    0    0
      65       22        2  0.52000000    9.65812    5.29465    3.30177    0    0    0
      66       22        2  0.52000000    8.51745    4.88061    2.39647    0    0    0
      67       23        1 -1.04000000    6.03810   15.64117   10.14963    0    0    0
      68       23        2  0.52000000    5.28054   16.00836    9.69453    0    0    0
      69       23        2  0.52000000    6.68136   16.35047   10.15584    0    0    0
      70       24        1 -1.04000000   13.11503    6.34163    4.84948    0    0    0
      71       24        2  0.52000000   13.66126    5.66198    5.24388    0    0    0
      72       24        2  0.52000000   12.22370    5.99639    4.90664    0    0    0
      73       25        1 -1.04000000   18.30326    1.75375    8.00005    0    0    0
      74       25        2  0.52000000   17.86820    2.14665    7.24361    0    0    0
      75       25        2  0.52000000   17.82854    2.09960    8.75634    0    0    0
      76       26        1 -1.04000000   13.81958   15.67272   15.11375    0    0    0
      77       26        2  0.52000000   14.05860   15.93044   14.22364    0    0    0
      78       26        2  0.52000000   14.12182   16.39684   15.66260    0    0    0
      79       27        1 -1.04000000   15.34390    1.88105   13.14208    0    0    0
      80       27        2  0.52000000   15.16321    2.66814   12.62858    0    0    0
      81       27        2  0.52000000   14.49289    1.45081   13.22934    0    0    0
      82       28        1 -1.04000000   19.15702   15.76822   19.27244    0    0    0
      83       28        2  0.52000000   18.39082   16.33534   19.35701    0    0    0
      84       28        2  0.52000000   19.45216   15.89644   18.37056    0    0    0
      85       29        1 -1.04000000   17.80280   11.16985   18.70868    0    0    0
      86       29        2  0.52000000   18.08804   11.56611   19.53177    0    0    0
      87       29        2  0.52000000   18.10916   10.26404   18.75955    0    0    0
      88       30        1 -1.04000000   19.03606    9.73317    6.71697    0    0    0
      89       30        2  0.52000000   18.95462    9.58091    7.65826    0    0    0
      90       30        2  0.52000000   19.00933   10.68591    6.62476    0    0    0
      91       31        1 -1.04000000    4.61198   13.95483   15.00116    0    0    0
      92       31        2  0.52000000    5.17861   14.16994   15.74177    0    0    0
      93       31        2  0.52000000    5.20941   13.87522   14.25707    0    0    0
      94       32        1 -1.04000000   18.71102   16.06007    4.25590    0    0    0
      95       32        2  0.52000000   18.64967   16.02257    3.30160    0    0    0
      96       32        2  0.52000000   19.63932   15.91735    4.44250    0    0    0
      97       33        1 -1.04000000    3.62016   10.08723    1.02673    0    0    0
      98       33        2  0.52000000    4.02424    9.37770    0.52761    0    0    0
      99       33        2  0.52000000    4.35560   10.53507    1.44566    0    0    0
     100       34        1 -1.04000000    0.79904    0.69906   13.14716    0    0    0
     101       34        2  0.52000000    0.46154    1.55372   12.87976    0    0    0
     102       34        2  0.52000000    1.73942    0.74721   12.97309    0    0    0
     103       35        1 -1.04000000    6.81605   11.31872    7.13109    0    0    0
     104       35        2  0.52000000    6.76477   10.42853    7.47864    0    0    0
     105       35        2  0.52000000    7.41918   11.25275    6.39027    0    0    0
     106       36        1 -1.04000000   18.21761   19.03546   18.32247    0    0    0
     107       36        2  0.52000000   18.42578   18.54670   17.52647    0    0    0
     108       36        2  0.52000000   17.35660   19.41784   18.15106    0    0    0
     109       37        1 -1.04000000    1.66009    9.17124   13.91202    0    0    0
     110       37        2  0.52000000    1.81529    8.46665   14.54076    0    0    0
     111       37        2  0.52000000    2.52462    9.36211   13.54722    0    0    0
     112       38        1 -1.04000000    4.69800    3.11562   18.21916    0    0    0
     113       38        2  0.52000000    4.79513    3.19020   17.27003    0    0    0
     114       38        2  0.52000000    5.50687    2.69418   18.51081    0    0    0
     115       39        1 -1.04000000   18.81000    6.97521    5.65958    0    0    0
     116       39        2  0.52000000   18.49087    7.34471    6.48266    0    0    0
     117       39        2  0.52000000   19.69913    6.68007    5.85776    0    0    0
     118       40        1 -1.04000000    2.90997    8.71703    6.74617    0    0    0
     119       40        2  0.52000000    3.01652    8.64106    7.69418    0    0    0
     120       40        2  0.52000000    3.07351    9.64191    6.55964    0    0    0
     121       41        1 -1.04000000   17.69712    0.23993    1.94255    0    0    0
     122       41        2  0.52000000   18.35856    0.28683    2.63259    0    0    0
     123       41        2  0.52000000   17.94431   -0.52676    1.42486    0    0    0
     124       42        1 -1.04000000    8.08304    5.89845   14.63204    0    0    0
     125       42        2  0.52000000    7.24666    6.20754   14.97959    0    0    0
     126       42        2  0.52000000    8.67030    5.89400   15.38837    0    0    0
     127       43        1 -1.04000000   14.10465    1.62720   11.05166    0    0    0
     128       43        2  0.52000000   14.64012    2.34397   10.71201    0    0    0
     129       43        2  0.52000000   13.25523    2.02883   11.23632    0    0    0
     130       44        1 -1.04000000   10.95764    1.17041    4.34895    0    0    0
     131       44        2  0.52000000   11.62858    0.54258    4.08155    0    0    0
     132       44        2  0.52000000   10.41378    1.28701    3.56950    0    0    0
     133       45        1 -1.04000000    7.77487    8.18405   13.73915    0    0    0
     134       45        2  0.52000000    7.49374    7.64710   14.47977    0    0    0
     135       45        2  0.52000000    8.73139    8.16884   13.78108    0    0    0
     136       46        1 -1.04000000   15.70725    1.21370   11.14571    0    0    0
     137       46        2  0.52000000   15.66367    0.55818   10.44984    0    0    0
     138       46        2  0.52000000   16.62908    1.22812   11.40445    0    0    0
     139       47        1 -1.04000000   10.82594   10.67905    7.13891    0    0    0
     140       47        2  0.52000000   10.44569   11.55036    7.02906    0    0    0
     141       47        2  0.52000000   11.72837   10.77059    6.83203    0    0    0
     142       48        1 -1.04000000    9.16830   18.68416   12.15659    0    0    0
     143       48        2  0.52000000    8.91525   18.82096   11.24385    0    0    0
     144       48        2  0.52000000    8.91645   19.49488   12.59956    0    0    0
     145       49        1 -1.04000000    8.94684   12.38433    9.95452    0    0    0
     146       49        2  0.52000000    8.92238   11.88219   10.76883    0    0    0
     147       49        2  0.52000000    9.13078   11.73348    9.27665    0    0    0
     148       50        1 -1.04000000    5.73279    4.81012    1.21248    0    0    0
     149       50        2  0.52000000    6.44441    5.36664    1.52828    0    0    0
     150       50        2  0.52000000    5.82280    4.82324    0.25924    0    0    0
     151       51        1 -1.04000000    2.97199   15.02407    0.61111    0    0    0
     152       51        2  0.52000000    3.50753   15.56196    1.19396    0    0    0
     153       51        2  0.52000000    2.52048   14.41397    1.19493    0    0    0
     154       52        1 -1.04000000   13.93865    9.75147   19.70492    0    0    0
     155       52        2  0.52000000   13.29606   10.09153   20.32725    0    0    0
     156       52        2  0.52000000   14.76530   10.15700   19.96783    0    0    0
     157       53        1 -1.04000000    6.67414   11.11795    1.18028    0    0    0
     158       53        2  0.52000000    7.51034   11.57958    1.12102    0    0    0
     159       53        2  0.52000000    6.81552   10.30247    0.69869    0    0    0
     160       54        1 -1.04000000    4.99061    8.68011   15.77597    0    0    0
     161       54        2  0.52000000    4.79570    8.74632   16.71057    0    0    0
     162       54        2  0.52000000    5.21369    9.57356   15.51345    0    0    0
     163       55        1 -1.04000000   11.70419    2.75633   14.07565    0    0    0
     164       55        2  0.52000000   11.74176    3.69908   14.23581    0    0    0
     165       55        2  0.52000000   12.55405    2.54459   13.68855    0    0    0
     166       56        1 -1.04000000   16.24105   11.06015    5.69854    0    0    0
     167       56        2  0.52000000   15.82101   10.24027    5.95780    0    0    0
     168       56        2  0.52000000   15.93794   11.69958    6.34366    0    0    0
     169       57        1 -1.04000000   14.76608   -0.00593    8.31281    0    0    0
     170       57        2  0.52000000   14.84584   -0.67034    7.62867    0    0    0
     171       57        2  0.52000000   15.38808    0.67627    8.05852    0    0    0
     172       58        1 -1.04000000    1.05357    8.76989    7.31110    0    0    0
     173       58        2  0.52000000    0.83121    9.70066    7.30263    0    0    0
     174       58        2  0.52000000    1.11523    8.52944    6.38627    0    0    0
     175       59        1 -1.04000000   16.22139    4.94281    6.31673    0    0    0
     176       59        2  0.52000000   16.47919    4.85778    5.39904    0    0    0
     177       59        2  0.52000000   15.29942    5.19940    6.28423    0    0    0
     178       60        1 -1.04000000   16.99878    7.70665    9.74204    0    0    0
     179       60        2  0.52000000   17.07692    7.64881   10.69408    0    0    0
     180       60        2  0.52000000   16.92429    8.64454    9.56388    0    0    0
     181       61        1 -1.04000000    1.74098   15.89014   17.72899    0    0    0
     182       61        2  0.52000000    2.22332   15.33168   18.33835    0    0    0
     183       61        2  0.52000000    2.03569   16.77817   17.93265    0    0    0
     184       62        1 -1.04000000    3.72715    8.18418   18.78968    0    0    0
     185       62        2  0.52000000    3.72333    8.01155   19.73098    0    0    0
     186       62        2  0.52000000    4.54951    7.80426   18.47934    0    0    0
     187       63        1 -1.04000000    4.82882    2.12224    7.32917    0    0    0
     188       63        2  0.52000000    5.51266    1.45925    7.23617    0    0    0
     189       63        2  0.52000000    4.65853    2.41851    6.43466    0    0    0
     190       64        1 -1.04000000   18.16507   18.12778    9.66981    0    0    0
     191       64        2  0.52000000   17.23999   18.16055    9.91272    0    0    0
     192       64        2  0.52000000   18.59494   17.71167   10.41747    0    0    0
     193       65        1 -1.04000000    4.97185   14.61798   19.92340    0    0    0
     194       65        2  0.52000000    4.42381   15.32518   19.58375    0    0    0
     195       65        2  0.52000000    5.60434   15.05685   20.49285    0    0    0
     196       66        1 -1.04000000    9.83046   11.96171   19.65015    0    0    0
     197       66        2  0.52000000    9.46460   11.73807   20.50571    0    0    0
     198       66        2  0.52000000   10.70494   12.30022   19.84414    0    0    0
     199       67        1 -1.04000000    1.05534   12.63271    7.87903    0    0    0
     200       67        2  0.52000000    0.35121   12.96633    8.43467    0    0    0
     201       67        2  0.52000000    1.59346   13.40096    7.68630    0    0    0
     202       68        1 -1.04000000   16.21766   -0.16861   -0.27712    0    0    0
     203       68        2  0.52000000   15.31996    0.15415   -0.35325    0    0    0
     204       68        2  0.52000000   16.46238    0.01447    0.63036    0    0    0
     205       69        1 -1.04000000   17.03280   17.11022   13.37333    0    0    0
     206       69        2  0.52000000   16.39881   17.41752   12.72566    0    0    0
     207       69        2  0.52000000   17.56838   16.47226   12.90101    0    0    0
     208       70        1 -1.04000000    0.02406   11.72611    5.27750    0    0    0
     209       70        2  0.52000000    0.74297   12.14826    4.80759    0    0    0
     210       70        2  0.52000000   -0.76703   12.12563    4.91491    0    0    0
     211       71        1 -1.04000000   11.88902   20.31911    0.19610    0    0    0
     212       71        2  0.52000000   12.78101   20.01612    0.02760    0    0    0
     213       71        2  0.52000000   11.32997   19.66477   -0.22370    0    0    0
     214       72        1 -1.04000000    0.10888    5.20866    4.68822    0    0    0
     215       72        2  0.52000000   -0.16852    5.53565    5.54377    0    0    0
     216       72        2  0.52000000    0.05963    4.25570    4.76801    0    0    0
     217       73        1 -1.04000000    6.25426   12.03125    9.29492    0    0    0
     218       73        2  0.52000000    6.44036   11.81189    8.38218    0    0    0
     219       73        2  0.52000000    5.30538   12.15686    9.32290    0    0    0
     220       74        1 -1.04000000   12.10791    7.37426    0.97027    0    0    0
     221       74        2  0.52000000   12.51521    6.68763    1.49798    0    0    0
     222       74        2  0.52000000   11.37688    6.93811    0.53175    0    0    0
     223       75        1 -1.04000000   17.31728   19.06271   10.78090    0    0    0
     224       75        2  0.52000000   16.80870   19.70711   11.27277    0    0    0
     225       75        2  0.52000000   16.87402   18.23019   10.94633    0    0    0
     226       76        1 -1.04000000    5.10672    2.12565   11.35415    0    0    0
     227       76        2  0.52000000    5.19894    2.58265   10.51839    0    0    0
     228       76        2  0.52000000    4.69434    1.29170   11.12745    0    0    0
     229       77        1 -1.04000000   -0.37093   10.07087   16.90006    0    0    0
     230       77        2  0.52000000   -0.01277    9.95972   17.78053    0    0    0
     231       77        2  0.52000000    0.38371    9.96941   16.31941    0    0    0
     232       78        1 -1.04000000   19.13468    4.23389   18.28242    0    0    0
     233       78        2  0.52000000   18.96225    3.29392   18.33322    0    0    0
     234       78        2  0.52000000   18.90306    4.47219   17.38437    0    0    0
     235       79        1 -1.04000000    7.88308    1.69461    8.78629    0    0    0
     236       79        2  0.52000000    8.08828    1.71099    9.72089    0    0    0
     237       79        2  0.52000000    8.02864    2.59440    8.49282    0    0    0
     238       80        1 -1.04000000    1.31610    3.84914    9.17298    0    0    0
     239       80        2  0.52000000    1.23356    4.15810    8.27099    0    0    0
     240       80        2  0.52000000    0.45033    3.99276    9.55604    0    0    0
     241       81        1 -1.04000000    6.85656    1.69620   14.19933    0    0    0
     242       81        2  0.52000000    7.10167    1.72672   13.27475    0    0    0
     243       81        2  0.52000000    7.04177    2.57708   14.52592    0    0    0
     244       82        1 -1.04000000   13.33897   10.19413   11.99633    0    0    0
     245       82        2  0.52000000   12.51299   10.45044   11.58656    0    0    0
     246       82        2  0.52000000   13.14804    9.35543   12.41710    0    0    0
     247       83        1 -1.04000000   14.81133    6.70375   13.17100    0    0    0
     248       83        2  0.52000000   14.45699    7.55654   12.91990    0    0    0
     249       83        2  0.52000000   15.73168    6.73972   12.90910    0    0    0
     250       84        1 -1.04000000    6.05019   17.84402   15.64538    0    0    0
     251       84        2  0.52000000    6.60543   17.73453   16.41711    0    0    0
     252       84        2  0.52000000    5.34438   18.42145   15.93751    0    0    0
     253       85        1 -1.04000000    3.30865   11.21921    2.90366    0    0    0
     254       85        2  0.52000000    3.05095   10.37558    2.53256    0    0    0
     255       85        2  0.52000000    2.64039   11.40521    3.56378    0    0    0
     256       86        1 -1.04000000    0.81898   18.02238    1.65455    0    0    0
     257       86        2  0.52000000    1.31314   18.70888    2.10219    0    0    0
     258       86        2  0.52000000    0.86789   17.26874    2.24326    0    0    0
     259       87        1 -1.04000000   11.06147   16.36193   17.86648    0    0    0
     260       87        2  0.52000000   10.28473   16.02704   18.31412    0    0    0
     261       87        2  0.52000000   11.65380   15.61103   17.81940    0    0    0
     262       88        1 -1.04000000    6.86064   14.13098    9.65937    0    0    0
     263       88        2  0.52000000    6.62059   14.41908   10.53984    0    0    0
     264       88        2  0.52000000    7.51877   13.44995    9.80079    0    0    0
     265       89        1 -1.04000000    2.67802   15.02124   10.77982    0    0    0
     266       89        2  0.52000000    3.58533   15.15058   10.50430    0    0    0
     267       89        2  0.52000000    2.73665   14.82818   11.71588    0    0    0
     268       90        1 -1.04000000   17.76840   17.07498    8.69448    0    0    0
     269       90        2  0.52000000   17.59134   16.49533    9.43510    0    0    0
     270       90        2  0.52000000   18.64027   17.42969    8.87042    0    0    0
     271       91        1 -1.04000000   10.99384   13.65911   17.19067    0    0    0
     272       91        2  0.52000000   10.86468   13.80865   16.25429    0    0    0
     273       91        2  0.52000000   11.14148   14.53224   17.55504    0    0    0
     274       92        1 -1.04000000   13.33944    8.14283    0.13032    0    0    0
     275       92        2  0.52000000   13.04429    8.07094   -0.77718    0    0    0
     276       92        2  0.52000000   12.61628    7.78623    0.64686    0    0    0
     277       93        1 -1.04000000    1.84989    4.23293    6.27534    0    0    0
     278       93        2  0.52000000    1.93370    4.41187    5.33896    0    0    0
     279       93        2  0.52000000    2.21641    3.35520    6.38570    0    0    0
     280       94        1 -1.04000000    6.21731   17.75016    7.79274    0    0    0
     281       94        2  0.52000000    6.40915   18.11657    8.65575    0    0    0
     282       94        2  0.52000000    5.37354   18.13327    7.55151    0    0    0
     283       95        1 -1.04000000    9.71322   -0.08551    5.25109    0    0    0
     284       95        2  0.52000000    9.67604   -0.09387    4.29485    0    0    0
     285       95        2  0.52000000   10.61075    0.17938    5.45406    0    0    0
     286       96        1 -1.04000000    8.73072   13.15428   15.76275    0    0    0
     287       96        2  0.52000000    8.81107   13.26801   16.70956    0    0    0
     288       96        2  0.52000000    9.45821   12.57771   15.52769    0    0    0
     289       97        1 -1.04000000   12.74007   15.15310    0.75181    0    0    0
     290       97        2  0.52000000   13.25372   14.35313    0.64196    0    0    0
     291       97        2  0.52000000   13.00621   15.49377    1.60623    0    0    0
     292       98        1 -1.04000000   19.97682   10.38195   -0.07859    0    0    0
     293       98        2  0.52000000   19.53851    9.90091    0.62307    0    0    0
     294       98        2  0.52000000   20.48467    9.71714   -0.54447    0    0    0
     295       99        1 -1.04000000    4.30466    0.97016   15.75733    0    0    0
     296       99        2  0.52000000    4.31841    0.99642   16.71387    0    0    0
     297       99        2  0.52000000    3.37692    1.03341   15.52881    0    0    0
     298      100        1 -1.04000000   11.66059    9.19255   12.01815    0    0    0
     299      100        2  0.52000000   12.39667    9.24473   12.62751    0    0    0
     300      100        2  0.52000000   11.94274    8.56272   11.35434    0    0    0
     301      101        1 -1.04000000    0.68145   12.90074   18.79684    0    0    0
     302      101        2  0.52000000    0.79535   12.89468   19.74701    0    0    0
     303      101        2  0.52000000    1.52320   13.20458   18.45615    0    0    0
     304      102        1 -1.04000000    9.31757   12.20673    3.90507    0    0    0
     305      102        2  0.52000000    9.25481   11.26262    4.04850    0    0    0
     306      102        2  0.52000000    8.42762   12.53065    4.04642    0    0    0
     307      103        1 -1.04000000   15.04499    0.35241    3.83756    0    0    0
     308      103        2  0.52000000   14.40933    0.09158    4.50371    0    0    0
     309      103        2  0.52000000   15.54568   -0.44399    3.65872    0    0    0
     310      104        1 -1.04000000    1.94976   19.28161   14.26604    0    0    0
     311      104        2  0.52000000    2.42799   18.45889   14.36747    0    0    0
     312      104        2  0.52000000    1.62225   19.25950   13.36649    0    0    0
     313      105        1 -1.04000000   18.38861   19.96311    3.01505    0    0    0
     314      105        2  0.52000000   17.75770   19.80350    3.71672    0    0    0
     315      105        2  0.52000000   17.85370   20.23339    2.26823    0    0    0
     316      106        1 -1.04000000   10.08681   19.70425    9.24000    0    0    0
     317      106        2  0.52000000   10.08492   19.70047    8.28301    0    0    0
     318      106        2  0.52000000    9.82827   20.59528    9.47699    0    0    0
     319      107        1 -1.04000000   14.33965   18.06525   19.18161    0    0    0
     320      107        2  0.52000000   13.84309   18.67202   18.63289    0    0    0
     321      107        2  0.52000000   13.81726   17.26273   19.18550    0    0    0
     322      108        1 -1.04000000   15.10517   13.69416   18.78091    0    0    0
     323      108        2  0.52000000   15.53209   14.02199   19.57219    0    0    0
     324      108        2  0.52000000   14.36273   14.28386   18.64690    0    0    0
     325      109        1 -1.04000000    0.75379    1.12665    7.72443    0    0    0
     326      109        2  0.52000000    0.87910    1.48010    8.60489    0    0    0
     327      109        2  0.52000000    1.36712    0.39325    7.67068    0    0    0
     328      110        1 -1.04000000    0.78487   15.12249    6.69781    0    0    0
     329      110        2  0.52000000    1.72504   15.23957    6.83286    0    0    0
     330      110        2  0.52000000    0.49009   14.63794    7.46933    0    0    0
     331      111        1 -1.04000000    0.13197    1.71500   16.23229    0    0    0
     332      111        2  0.52000000    0.18638    2.65962   16.37572    0    0    0
     333      111        2  0.52000000   -0.31835    1.62538   15.39198    0    0    0
     334      112        1 -1.04000000    9.70725    3.95022   15.25381    0    0    0
     335      112        2  0.52000000   10.34528    4.66304   15.22840    0    0    0
     336      112        2  0.52000000    9.94747    3.38675   14.51779    0    0    0
     337      113        1 -1.04000000   15.67403   13.18404   14.11170    0    0    0
     338      113        2  0.52000000   16.54939   13.26170   14.49060    0    0    0