Created by /global/cfs/cdirs/m5056/rsb/codes/ATLAS-toolkit/scripts/createLammpsInput.pl on Thu Apr  9 14:47:56 2026

         849 atoms
         546 bonds
         263 angles

           6 atom types
           2 bond types
           1 angle types

		   0.000000  20.249990 xlo xhi
		   0.000000  20.249990 ylo yhi
		   0.000000  20.249990 zlo zhi

Masses

    1 1.5999E+01 # OW     
    2 1.0080E+00 # HW     
    3 6.9410E+00 # Li     
    4 3.9948E+01 # K_     
    5 1.5999E+01 # O_3    
    6 1.0080E+00 # H_     

Atoms

       1        1        1 -1.04000000    3.26333    3.72429   15.08512    0    0    0
       2        1        2  0.52000000    3.08879    4.12423   14.23339    0    0    0
       3        1        2  0.52000000    2.64787    4.15147   15.68149    0    0    0
       4        2        1 -1.04000000   18.33243   10.14509    3.14507    0    0    0
       5        2        2  0.52000000   17.76120   10.53738    2.48502    0    0    0
       6        2        2  0.52000000   17.90638    9.31753    3.36991    0    0    0
       7        3        1 -1.04000000    7.72439    9.08886    9.73781    0    0    0
       8        3        2  0.52000000    7.62498    9.00377   10.68582    0    0    0
       9        3        2  0.52000000    8.65063    8.90737    9.57637    0    0    0
      10        4        1 -1.04000000    0.32252   14.83815   13.85038    0    0    0
      11        4        2  0.52000000    0.25434   15.64736   14.35671    0    0    0
      12        4        2  0.52000000   -0.57686   14.51449   13.79291    0    0    0
      13        5        1 -1.04000000    2.26781   14.02490   18.28331    0    0    0
      14        5        2  0.52000000    1.99893   13.24469   17.79871    0    0    0
      15        5        2  0.52000000    1.73326   14.73040   17.91798    0    0    0
      16        6        1 -1.04000000    3.16413   10.66382    0.11245    0    0    0
      17        6        2  0.52000000    2.96052   11.42597    0.65421    0    0    0
      18        6        2  0.52000000    2.87535   10.91021   -0.76666    0    0    0
      19        7        1 -1.04000000   18.35650   13.01912   16.84143    0    0    0
      20        7        2  0.52000000   18.01040   12.34359   17.42428    0    0    0
      21        7        2  0.52000000   17.63310   13.63729   16.73429    0    0    0
      22        8        1 -1.04000000    5.38923   -0.03009    7.01413    0    0    0
      23        8        2  0.52000000    4.76007   -0.69650    6.73861    0    0    0
      24        8        2  0.52000000    4.85070    0.72659    7.24727    0    0    0
      25        9        1 -1.04000000   11.93652   14.66399    2.18886    0    0    0
      26        9        2  0.52000000   12.52907   14.81949    1.45365    0    0    0
      27        9        2  0.52000000   11.53441   15.51652    2.35749    0    0    0
      28       10        1 -1.04000000    4.97826   10.34378    5.81575    0    0    0
      29       10        2  0.52000000    5.20731   10.18347    6.73100    0    0    0
      30       10        2  0.52000000    4.81443    9.47275    5.45325    0    0    0
      31       11        1 -1.04000000   17.36631   11.99359   15.86444    0    0    0
      32       11        2  0.52000000   17.07481   11.88293   16.76922    0    0    0
      33       11        2  0.52000000   16.55888   12.12349   15.36634    0    0    0
      34       12        1 -1.04000000    3.02463    7.89093    3.62570    0    0    0
      35       12        2  0.52000000    2.26919    7.81717    4.20856    0    0    0
      36       12        2  0.52000000    3.70618    8.29190    4.16574    0    0    0
      37       13        1 -1.04000000   15.13444    5.64301    6.08419    0    0    0
      38       13        2  0.52000000   15.08054    6.06077    5.22487    0    0    0
      39       13        2  0.52000000   14.78502    6.29622    6.69094    0    0    0
      40       14        1 -1.04000000   12.18979   -0.33865    4.04357    0    0    0
      41       14        2  0.52000000   12.44443    0.52214    4.37531    0    0    0
      42       14        2  0.52000000   11.36578   -0.18349    3.58112    0    0    0
      43       15        1 -1.04000000   10.03204    7.38118    8.92077    0    0    0
      44       15        2  0.52000000   10.60097    6.84880    9.47642    0    0    0
      45       15        2  0.52000000    9.36698    6.77002    8.60281    0    0    0
      46       16        1 -1.04000000    1.28785   19.22718   -0.13467    0    0    0
      47       16        2  0.52000000    0.45327   19.50244    0.24423    0    0    0
      48       16        2  0.52000000    1.25888   18.27038   -0.10956    0    0    0
      49       17        1 -1.04000000    3.83199   10.95479   13.65024    0    0    0
      50       17        2  0.52000000    4.56946   11.52108   13.87673    0    0    0
      51       17        2  0.52000000    3.59856   10.52413   14.47303    0    0    0
      52       18        1 -1.04000000    6.07445   16.36357    6.12198    0    0    0
      53       18        2  0.52000000    5.91612   16.06756    5.22579    0    0    0
      54       18        2  0.52000000    6.00943   15.56887    6.65223    0    0    0
      55       19        1 -1.04000000   13.90514   10.05193   16.62462    0    0    0
      56       19        2  0.52000000   13.74909    9.27864   17.16639    0    0    0
      57       19        2  0.52000000   14.34577   10.66943   17.20899    0    0    0
      58       20        1 -1.04000000   14.96274   15.21670    8.32288    0    0    0
      59       20        2  0.52000000   15.05887   15.52171    7.42090    0    0    0
      60       20        2  0.52000000   14.97839   14.26159    8.25622    0    0    0
      61       21        1 -1.04000000   19.82614    3.34830   17.96738    0    0    0
      62       21        2  0.52000000   19.56617    2.52346   17.55761    0    0    0
      63       21        2  0.52000000   20.60769    3.12825   18.47501    0    0    0
      64       22        1 -1.04000000    8.95091   17.18676   20.33958    0    0    0
      65       22        2  0.52000000    9.07977   17.57171   19.47294    0    0    0
      66       22        2  0.52000000    8.96932   16.24153   20.18748    0    0    0
      67       23        1 -1.04000000    4.80899   12.22471   18.25617    0    0    0
      68       23        2  0.52000000    4.67242   12.16867   17.31062    0    0    0
      69       23        2  0.52000000    5.51859   11.60661   18.43321    0    0    0
      70       24        1 -1.04000000   10.01119    6.69556   18.75547    0    0    0
      71       24        2  0.52000000    9.66824    6.71684   19.64866    0    0    0
      72       24        2  0.52000000   10.32058    7.58760   18.59587    0    0    0
      73       25        1 -1.04000000   -0.01074    4.03056   18.38930    0    0    0
      74       25        2  0.52000000   -0.75112    3.96488   17.78649    0    0    0
      75       25        2  0.52000000    0.76187    4.00456   17.82421    0    0    0
      76       26        1 -1.04000000    2.17923   10.28249    0.79831    0    0    0
      77       26        2  0.52000000    1.79256    9.47566    0.45867    0    0    0
      78       26        2  0.52000000    2.02821   10.24185    1.74302    0    0    0
      79       27        1 -1.04000000    0.79473    8.66878   12.97242    0    0    0
      80       27        2  0.52000000    0.45926    9.56441   13.00629    0    0    0
      81       27        2  0.52000000    1.74601    8.76681   13.02129    0    0    0
      82       28        1 -1.04000000   12.29919    2.24109   19.07048    0    0    0
      83       28        2  0.52000000   11.66755    1.89240   19.69922    0    0    0
      84       28        2  0.52000000   12.03326    1.86652   18.23030    0    0    0
      85       29        1 -1.04000000    3.03084    2.21917   18.67811    0    0    0
      86       29        2  0.52000000    3.12719    2.49877   19.58827    0    0    0
      87       29        2  0.52000000    2.84197    1.28206   18.73363    0    0    0
      88       30        1 -1.04000000   13.62373    0.94000    9.08616    0    0    0
      89       30        2  0.52000000   14.01727    1.03955    8.21952    0    0    0
      90       30        2  0.52000000   14.35899    1.02045    9.69431    0    0    0
      91       31        1 -1.04000000   12.09940    3.72568   17.25975    0    0    0
      92       31        2  0.52000000   11.91871    3.61079   16.32701    0    0    0
      93       31        2  0.52000000   11.98188    4.66353   17.41324    0    0    0
      94       32        1 -1.04000000   17.89794    3.62896   15.06721    0    0    0
      95       32        2  0.52000000   18.69417    4.07776   15.35083    0    0    0
      96       32        2  0.52000000   17.40789    4.29328   14.58196    0    0    0
      97       33        1 -1.04000000    2.03011   11.68818    9.76662    0    0    0
      98       33        2  0.52000000    1.98563   11.70199   10.72249    0    0    0
      99       33        2  0.52000000    1.98426   12.60983    9.51089    0    0    0
     100       34        1 -1.04000000   16.70285    1.13975    7.21159    0    0    0
     101       34        2  0.52000000   16.79146    1.13425    6.25872    0    0    0
     102       34        2  0.52000000   17.50569    0.72599    7.52968    0    0    0
     103       35        1 -1.04000000    5.00946   -0.35306   14.83307    0    0    0
     104       35        2  0.52000000    4.88945   -0.14659   15.75980    0    0    0
     105       35        2  0.52000000    5.10109    0.49965   14.40713    0    0    0
     106       36        1 -1.04000000    9.32605    9.15848   13.85447    0    0    0
     107       36        2  0.52000000    8.86275    9.40366   14.65515    0    0    0
     108       36        2  0.52000000    8.81120    8.43786   13.49037    0    0    0
     109       37        1 -1.04000000   17.83012    5.16259    8.68805    0    0    0
     110       37        2  0.52000000   17.48996    5.11410    9.58124    0    0    0
     111       37        2  0.52000000   18.67992    4.72332    8.73070    0    0    0
     112       38        1 -1.04000000   17.25728   14.24721    3.84096    0    0    0
     113       38        2  0.52000000   17.21166   13.95502    4.75112    0    0    0
     114       38        2  0.52000000   16.53106   13.79777    3.40792    0    0    0
     115       39        1 -1.04000000   11.67948   13.80775    8.88638    0    0    0
     116       39        2  0.52000000   12.05119   13.85738    9.76684    0    0    0
     117       39        2  0.52000000   12.26933   14.33487    8.34678    0    0    0
     118       40        1 -1.04000000   18.99999    8.93219    0.38471    0    0    0
     119       40        2  0.52000000   19.28832    9.72313   -0.07039    0    0    0
     120       40        2  0.52000000   18.71169    8.34468   -0.31432    0    0    0
     121       41        1 -1.04000000   15.38889    3.03686   18.99725    0    0    0
     122       41        2  0.52000000   14.81039    2.87956   18.25130    0    0    0
     123       41        2  0.52000000   14.80072    3.08358   19.75144    0    0    0
     124       42        1 -1.04000000    3.81868    8.68502   16.85679    0    0    0
     125       42        2  0.52000000    4.72979    8.75772   17.14041    0    0    0
     126       42        2  0.52000000    3.45153    9.55726   17.00280    0    0    0
     127       43        1 -1.04000000    7.91151    0.08547   14.62924    0    0    0
     128       43        2  0.52000000    8.18746    0.68843   15.31927    0    0    0
     129       43        2  0.52000000    7.90103   -0.77390   15.05150    0    0    0
     130       44        1 -1.04000000   14.84816   12.24798    2.26087    0    0    0
     131       44        2  0.52000000   14.52156   12.04834    1.38375    0    0    0
     132       44        2  0.52000000   15.63029   11.70368    2.35538    0    0    0
     133       45        1 -1.04000000   15.18840    7.23826   17.24564    0    0    0
     134       45        2  0.52000000   15.20461    7.25189   16.28888    0    0    0
     135       45        2  0.52000000   14.60699    6.50986   17.46548    0    0    0
     136       46        1 -1.04000000    4.27853   14.92111    9.73770    0    0    0
     137       46        2  0.52000000    4.39084   15.15024   10.66005    0    0    0
     138       46        2  0.52000000    3.33063   14.92864    9.60224    0    0    0
     139       47        1 -1.04000000   13.24136    5.76193    9.80592    0    0    0
     140       47        2  0.52000000   13.11716    5.82487   10.75273    0    0    0
     141       47        2  0.52000000   12.64148    6.41320    9.44135    0    0    0
     142       48        1 -1.04000000   13.97641   10.38527   10.93988    0    0    0
     143       48        2  0.52000000   13.25760    9.76997   11.08331    0    0    0
     144       48        2  0.52000000   14.76598    9.84476   10.97681    0    0    0
     145       49        1 -1.04000000    0.08497    4.62233   11.94758    0    0    0
     146       49        2  0.52000000   -0.29110    5.23148   11.31248    0    0    0
     147       49        2  0.52000000    0.20613    5.14619   12.73993    0    0    0
     148       50        1 -1.04000000    2.01676   16.33755   17.19590    0    0    0
     149       50        2  0.52000000    2.13385   16.19953   16.25617    0    0    0
     150       50        2  0.52000000    1.84939   15.46291   17.54792    0    0    0
     151       51        1 -1.04000000    6.09505   11.65753   13.16211    0    0    0
     152       51        2  0.52000000    6.25594   12.53455   13.50966    0    0    0
     153       51        2  0.52000000    5.64901   11.80792   12.32823    0    0    0
     154       52        1 -1.04000000    7.36200   15.12078    9.08348    0    0    0
     155       52        2  0.52000000    6.61695   15.04803    9.67968    0    0    0
     156       52        2  0.52000000    7.02105   14.83120    8.23683    0    0    0
     157       53        1 -1.04000000   18.77160   13.98804   11.68331    0    0    0
     158       53        2  0.52000000   19.66103   14.33472   11.75099    0    0    0
     159       53        2  0.52000000   18.56737   13.67724   12.56570    0    0    0
     160       54        1 -1.04000000    7.38161   15.08311   16.99159    0    0    0
     161       54        2  0.52000000    6.66440   15.58505   16.60492    0    0    0
     162       54        2  0.52000000    6.95400   14.33184   17.40349    0    0    0
     163       55        1 -1.04000000   -0.24013   18.96011    5.30553    0    0    0
     164       55        2  0.52000000    0.63863   19.33899    5.29706    0    0    0
     165       55        2  0.52000000   -0.39850   18.70090    4.39742    0    0    0
     166       56        1 -1.04000000    2.71887   15.24143   15.12360    0    0    0
     167       56        2  0.52000000    3.47361   15.45384   14.57487    0    0    0
     168       56        2  0.52000000    2.80753   14.30473   15.30153    0    0    0
     169       57        1 -1.04000000   13.80075    8.66811    1.05248    0    0    0
     170       57        2  0.52000000   14.01080    9.33457    1.70636    0    0    0
     171       57        2  0.52000000   14.18845    8.99731    0.24116    0    0    0
     172       58        1 -1.04000000   17.19443   17.84613   18.69814    0    0    0
     173       58        2  0.52000000   16.49590   18.49978   18.67273    0    0    0
     174       58        2  0.52000000   17.30966   17.65409   19.62914    0    0    0
     175       59        1 -1.04000000   -0.29463   14.22567   11.12194    0    0    0
     176       59        2  0.52000000    0.63901   14.43565   11.11346    0    0    0
     177       59        2  0.52000000   -0.34438   13.33867   10.76460    0    0    0
     178       60        1 -1.04000000   -0.32912   11.90130    4.18585    0    0    0
     179       60        2  0.52000000    0.56502   11.63249    4.39584    0    0    0
     180       60        2  0.52000000   -0.23590   12.46621    3.41831    0    0    0
     181       61        1 -1.04000000    3.19671   14.23720   12.24009    0    0    0
     182       61        2  0.52000000    3.19688   14.24144   11.28310    0    0    0
     183       61        2  0.52000000    2.60641   13.52136   12.47682    0    0    0
     184       62        1 -1.04000000    6.99415   18.69163    6.23974    0    0    0
     185       62        2  0.52000000    7.08293   18.69085    5.28687    0    0    0
     186       62        2  0.52000000    6.92292   19.61752    6.47338    0    0    0
     187       63        1 -1.04000000   14.15615   15.73959   11.24578    0    0    0
     188       63        2  0.52000000   14.19424   15.73824   10.28954    0    0    0
     189       63        2  0.52000000   13.64961   16.52217   11.46469    0    0    0
     190       64        1 -1.04000000   17.80810    6.20172    2.72598    0    0    0
     191       64        2  0.52000000   17.73665    6.29062    3.67616    0    0    0
     192       64        2  0.52000000   18.45525    5.50767    2.59786    0    0    0
     193       65        1 -1.04000000   12.29000    2.26172   12.99824    0    0    0
     194       65        2  0.52000000   11.47843    2.29047   13.50457    0    0    0
     195       65        2  0.52000000   12.23157    1.44781   12.49718    0    0    0
     196       66        1 -1.04000000   17.28612    3.80674    0.18273    0    0    0
     197       66        2  0.52000000   17.20708    3.98785   -0.75364    0    0    0
     198       66        2  0.52000000   16.50681    4.20540    0.57091    0    0    0
     199       67        1 -1.04000000   16.75425   10.12288   11.72232    0    0    0
     200       67        2  0.52000000   16.57320    9.51084   12.43539    0    0    0
     201       67        2  0.52000000   17.67256   10.36628   11.84229    0    0    0
     202       68        1 -1.04000000   14.30149    3.02681   12.24696    0    0    0
     203       68        2  0.52000000   13.46081    3.48127   12.29776    0    0    0
     204       68        2  0.52000000   14.23770    2.49193   11.45528    0    0    0
     205       69        1 -1.04000000   14.05940    3.62467   14.90944    0    0    0
     206       69        2  0.52000000   14.70384    4.33195   14.92638    0    0    0
     207       69        2  0.52000000   13.23676    4.04338   15.16417    0    0    0
     208       70        1 -1.04000000   16.31669   12.17194   17.84919    0    0    0
     209       70        2  0.52000000   16.27999   11.53474   18.56227    0    0    0
     210       70        2  0.52000000   15.40332   12.29331   17.58854    0    0    0
     211       71        1 -1.04000000   15.32932   19.13526    7.83920    0    0    0
     212       71        2  0.52000000   14.50549   18.92685    7.39908    0    0    0
     213       71        2  0.52000000   15.16520   18.93789    8.76172    0    0    0
     214       72        1 -1.04000000    8.81338   12.06191    5.66245    0    0    0
     215       72        2  0.52000000    9.74945   12.15331    5.83928    0    0    0
     216       72        2  0.52000000    8.43717   11.78478    6.49827    0    0    0
     217       73        1 -1.04000000   17.75336    8.77326   16.20090    0    0    0
     218       73        2  0.52000000   18.03831    8.66796   15.29340    0    0    0
     219       73        2  0.52000000   18.20833    9.55878   16.50570    0    0    0
     220       74        1 -1.04000000    8.86620   11.15755    3.66852    0    0    0
     221       74        2  0.52000000    8.95102   11.57788    4.52408    0    0    0
     222       74        2  0.52000000    9.18278   10.26457    3.80740    0    0    0
     223       75        1 -1.04000000   14.94861   18.37137    1.89026    0    0    0
     224       75        2  0.52000000   14.83452   17.99787    2.76395    0    0    0
     225       75        2  0.52000000   15.21688   17.63075    1.34579    0    0    0
     226       76        1 -1.04000000   11.95159    5.70401    4.25029    0    0    0
     227       76        2  0.52000000   11.95979    5.66679    3.29405    0    0    0
     228       76        2  0.52000000   12.08862    6.62920    4.45565    0    0    0
     229       77        1 -1.04000000    1.14237    7.23643    8.72353    0    0    0
     230       77        2  0.52000000    1.57707    6.94353    9.52421    0    0    0
     231       77        2  0.52000000    0.28056    6.82004    8.75225    0    0    0
     232       78        1 -1.04000000    5.64970    2.83481    0.05101    0    0    0
     233       78        2  0.52000000    6.45433    2.41806   -0.25678    0    0    0
     234       78        2  0.52000000    5.89597    3.74713    0.20577    0    0    0
     235       79        1 -1.04000000    7.22880    8.82183    6.73826    0    0    0
     236       79        2  0.52000000    7.22729    8.70778    7.68844    0    0    0
     237       79        2  0.52000000    6.54391    9.47039    6.57329    0    0    0
     238       80        1 -1.04000000   18.63129    0.89501   -0.07504    0    0    0
     239       80        2  0.52000000   19.01603    1.11638    0.77279    0    0    0
     240       80        2  0.52000000   19.35268    0.98860   -0.69775    0    0    0
     241       81        1 -1.04000000    7.16664   16.75461    2.25420    0    0    0
     242       81        2  0.52000000    7.21616   16.73061    1.29878    0    0    0
     243       81        2  0.52000000    6.61720   17.51479    2.44702    0    0    0
     244       82        1 -1.04000000   -0.22205    3.73034   13.82514    0    0    0
     245       82        2  0.52000000    0.60516    3.59744   14.28765    0    0    0
     246       82        2  0.52000000   -0.38310    4.67222   13.88722    0    0    0
     247       83        1 -1.04000000    8.96946   17.38710   16.04272    0    0    0
     248       83        2  0.52000000    8.63537   16.70554   16.62558    0    0    0
     249       83        2  0.52000000    9.39517   16.90736   15.33170    0    0    0
     250       84        1 -1.04000000   15.69976    1.84405    2.80471    0    0    0
     251       84        2  0.52000000   15.74970    2.71104    3.20681    0    0    0
     252       84        2  0.52000000   16.55055    1.44490    2.98848    0    0    0
     253       85        1 -1.04000000   16.15914    8.13904   13.67145    0    0    0
     254       85        2  0.52000000   15.86850    7.24455   13.84829    0    0    0
     255       85        2  0.52000000   15.97235    8.61640   14.48026    0    0    0
     256       86        1 -1.04000000    3.20265   14.78923    6.25906    0    0    0
     257       86        2  0.52000000    2.64398   14.46779    5.55167    0    0    0
     258       86        2  0.52000000    3.15338   15.74298    6.18927    0    0    0
     259       87        1 -1.04000000    6.75992   10.27240   15.85592    0    0    0
     260       87        2  0.52000000    7.71104   10.22184   15.76292    0    0    0
     261       87        2  0.52000000    6.52904    9.50576   16.38116    0    0    0
     262       88        1 -1.04000000   -0.24417   14.25015    0.82562    0    0    0
     263       88        2  0.52000000    0.43778   14.44860    1.46702    0    0    0
     264       88        2  0.52000000   -0.19361   13.30126    0.70736    0    0    0
     265       89        1 -1.04000000    8.78180    5.67650   16.01837    0    0    0
     266       89        2  0.52000000    9.71495    5.74266   15.81662    0    0    0
     267       89        2  0.52000000    8.50325    6.58084   16.16501    0    0    0
     268       90        1 -1.04000000    1.17871   11.31764   14.14060    0    0    0
     269       90        2  0.52000000    0.71099   10.64300   14.63248    0    0    0
     270       90        2  0.52000000    1.11030   11.03936   13.22692    0    0    0
     271       91        1 -1.04000000   16.36601   10.13090    7.96121    0    0    0
     272       91        2  0.52000000   15.57685   10.64256    8.13805    0    0    0
     273       91        2  0.52000000   16.05715    9.22654    7.90074    0    0    0
     274       92        1 -1.04000000    9.98491   16.14564   17.63783    0    0    0
     275       92        2  0.52000000   10.05413   15.22703   17.89709    0    0    0
     276       92        2  0.52000000    9.96096   16.62733   18.46507    0    0    0
     277       93        1 -1.04000000   17.75442   -0.01239   12.30354    0    0    0
     278       93        2  0.52000000   17.63010    0.43695   11.46778    0    0    0
     279       93        2  0.52000000   18.61548   -0.42456   12.22868    0    0    0
     280       94        1 -1.04000000    2.91335    8.86017   10.35432    0    0    0
     281       94        2  0.52000000    2.83727    9.76312   10.04653    0    0    0
     282       94        2  0.52000000    3.24938    8.37670    9.59916    0    0    0
     283       95        1 -1.04000000   14.08518   17.12771   16.35922    0    0    0
     284       95        2  0.52000000   14.36088   17.50366   15.52346    0    0    0
     285       95        2  0.52000000   13.55394   16.36863   16.11732    0    0    0
     286       96        1 -1.04000000   17.13883    2.69422    7.80043    0    0    0
     287       96        2  0.52000000   17.45779    3.04429    8.63203    0    0    0
     288       96        2  0.52000000   16.40338    3.26149    7.56753    0    0    0
     289       97        1 -1.04000000    9.22570   -0.10840    7.29985    0    0    0
     290       97        2  0.52000000    9.46668   -0.05421    6.37528    0    0    0
     291       97        2  0.52000000    8.30762    0.16261    7.32487    0    0    0
     292       98        1 -1.04000000   10.03494    6.23955   15.30659    0    0    0
     293       98        2  0.52000000   10.24885    5.30772   15.26425    0    0    0
     294       98        2  0.52000000    9.71621    6.45273   14.42916    0    0    0
     295       99        1 -1.04000000    4.73354    0.73274   10.89913    0    0    0
     296       99        2  0.52000000    4.89927    1.09487   11.76932    0    0    0
     297       99        2  0.52000000    5.36718    1.17238   10.33155    0    0    0
     298      100        1 -1.04000000    6.70843   19.97303    4.25857    0    0    0
     299      100        2  0.52000000    7.49098   19.42536    4.19932    0    0    0
     300      100        2  0.52000000    6.80059   20.60161    3.54211    0    0    0
     301      101        1 -1.04000000    4.34793   20.05796    6.83212    0    0    0
     302      101        2  0.52000000    4.10499   19.37274    7.45445    0    0    0
     303      101        2  0.52000000    3.54708   20.56930    6.71343    0    0    0
     304      102        1 -1.04000000   11.78069   16.73116   13.82047    0    0    0
     305      102        2  0.52000000   12.60789   16.59827   14.28298    0    0    0
     306      102        2  0.52000000   11.61142   17.67057   13.89655    0    0    0
     307      103        1 -1.04000000    1.18462    1.93003    5.33708    0    0    0
     308      103        2  0.52000000    0.97369    2.77965    4.95041    0    0    0
     309      103        2  0.52000000    0.84169    1.29032    4.71251    0    0    0
     310      104        1 -1.04000000    0.18803    8.96661   16.34078    0    0    0
     311      104        2  0.52000000   -0.56389    9.52316   16.13903    0    0    0
     312      104        2  0.52000000    0.37586    8.51023   15.52019    0    0    0
     313      105        1 -1.04000000   11.14194    7.03759   10.63800    0    0    0
     314      105        2  0.52000000   10.73348    7.71250   11.17977    0    0    0
     315      105        2  0.52000000   11.12459    6.24991   11.18223    0    0    0
     316      106        1 -1.04000000   16.34803    0.17721    0.00881    0    0    0
     317      106        2  0.52000000   16.02606   -0.51015    0.59167    0    0    0
     318      106        2  0.52000000   15.62591    0.33295   -0.60048    0    0    0
     319      107        1 -1.04000000    7.71249   18.76426    8.88015    0    0    0
     320      107        2  0.52000000    8.59822   18.83494    8.52472    0    0    0
     321      107        2  0.52000000    7.68929   19.40080    9.59513    0    0    0
     322      108        1 -1.04000000   10.98272    6.64079    2.15255    0    0    0
     323      108        2  0.52000000   11.74101    7.22307    2.11020    0    0    0
     324      108        2  0.52000000   10.27626    7.13614    1.73725    0    0    0
     325      109        1 -1.04000000    5.19571    3.68132   17.88712    0    0    0
     326      109        2  0.52000000    4.25665    3.84929   17.81099    0    0    0
     327      109        2  0.52000000    5.54764    4.46939   18.30188    0    0    0
     328      110        1 -1.04000000    1.17396   17.25417   -0.24028    0    0    0
     329      110        2  0.52000000    1.12293   17.29194    0.71461    0    0    0
     330      110        2  0.52000000    0.70311   16.45389   -0.47432    0    0    0
     331      111        1 -1.04000000   10.63483   10.88849    4.91744    0    0    0
     332      111        2  0.52000000   11.03834   10.97924    5.78045    0    0    0
     333      111        2  0.52000000   11.32683   11.13227    4.30211    0    0    0
     334      112        1 -1.04000000   10.74040   13.89043    3.72944    0    0    0
     335      112        2  0.52000000   10.88548   13.50312    4.59245    0    0    0
     336      112        2  0.52000000   11.37412   14.60645    3.67811    0    0    0
     337      113        1 -1.04000000   15.91320    5.67473    0.19816    0    0    0
     338      113        2  0.52000000   16.73516    5.89043   -0.24196    0    0    0