Created by /global/cfs/cdirs/m5056/rsb/codes/ATLAS-toolkit/scripts/createLammpsInput.pl on Thu Apr  9 14:47:57 2026

         852 atoms
         548 bonds
         264 angles

           6 atom types
           2 bond types
           1 angle types

		   0.000000  20.249820 xlo xhi
		   0.000000  20.249820 ylo yhi
		   0.000000  20.249820 zlo zhi

Masses

    1 1.5999E+01 # OW     
    2 1.0080E+00 # HW     
    3 6.9410E+00 # Li     
    4 3.9948E+01 # K_     
    5 1.5999E+01 # O_3    
    6 1.0080E+00 # H_     

Atoms

       1        1        1 -1.04000000    6.26473   11.15900    2.76075    0    0    0
       2        1        2  0.52000000    6.41514   10.75744    3.61631    0    0    0
       3        1        2  0.52000000    5.32014   11.08355    2.62294    0    0    0
       4        2        1 -1.04000000   12.86945    1.63279   11.02674    0    0    0
       5        2        2  0.52000000   13.13506    2.21316   11.73982    0    0    0
       6        2        2  0.52000000   12.99548    2.15406   10.23344    0    0    0
       7        3        1 -1.04000000   -0.27397    1.87212   10.75264    0    0    0
       8        3        2  0.52000000   -0.26299    1.79253   11.70626    0    0    0
       9        3        2  0.52000000    0.53696    2.33535   10.54111    0    0    0
      10        4        1 -1.04000000   14.31938    5.02262   18.77620    0    0    0
      11        4        2  0.52000000   14.27287    5.02509   19.73206    0    0    0
      12        4        2  0.52000000   13.40775    4.95229   18.49174    0    0    0
      13        5        1 -1.04000000    2.71746   15.16465    9.78631    0    0    0
      14        5        2  0.52000000    2.84433   15.22203   10.73313    0    0    0
      15        5        2  0.52000000    3.43821   14.61332    9.48057    0    0    0
      16        6        1 -1.04000000    1.80371   -0.29332   14.16743    0    0    0
      17        6        2  0.52000000    1.81136   -0.04644   13.24286    0    0    0
      18        6        2  0.52000000    2.38493    0.33976   14.58971    0    0    0
      19        7        1 -1.04000000   17.92964   15.10086   15.62922    0    0    0
      20        7        2  0.52000000   17.66825   14.29641   16.07685    0    0    0
      21        7        2  0.52000000   18.40211   15.60273   16.29393    0    0    0
      22        8        1 -1.04000000   15.66544    8.00033   17.20167    0    0    0
      23        8        2  0.52000000   16.06512    7.26869   16.73176    0    0    0
      24        8        2  0.52000000   16.26944    8.73098   17.06657    0    0    0
      25        9        1 -1.04000000   14.74946    1.81524   19.23600    0    0    0
      26        9        2  0.52000000   15.26974    2.59482   19.42946    0    0    0
      27        9        2  0.52000000   14.98080    1.58994   18.33453    0    0    0
      28       10        1 -1.04000000    1.25565   17.93736    1.28865    0    0    0
      29       10        2  0.52000000    0.41497   18.39182    1.33946    0    0    0
      30       10        2  0.52000000    1.32938   17.67083    0.37189    0    0    0
      31       11        1 -1.04000000    4.07154    1.37623   10.92296    0    0    0
      32       11        2  0.52000000    3.75031    0.70594   10.32016    0    0    0
      33       11        2  0.52000000    4.17816    0.91783   11.75688    0    0    0
      34       12        1 -1.04000000    9.18416   19.66348    3.92621    0    0    0
      35       12        2  0.52000000    9.49007   20.55117    3.74106    0    0    0
      36       12        2  0.52000000    8.32578   19.78535    4.33273    0    0    0
      37       13        1 -1.04000000   13.12222   13.89752    3.35660    0    0    0
      38       13        2  0.52000000   12.22222   13.92940    3.03282    0    0    0
      39       13        2  0.52000000   13.65557   14.17307    2.61058    0    0    0
      40       14        1 -1.04000000    3.99200    2.29978    6.74966    0    0    0
      41       14        2  0.52000000    4.11886    2.33187    7.69767    0    0    0
      42       14        2  0.52000000    3.88913    1.36835    6.55268    0    0    0
      43       15        1 -1.04000000   19.97143   13.74837   10.29744    0    0    0
      44       15        2  0.52000000   19.55443   13.68893    9.43812    0    0    0
      45       15        2  0.52000000   20.47414   14.56270   10.26444    0    0    0
      46       16        1 -1.04000000   10.17832    8.65254   11.99108    0    0    0
      47       16        2  0.52000000    9.26748    8.84897   11.77283    0    0    0
      48       16        2  0.52000000   10.55421    9.49848   12.23608    0    0    0
      49       17        1 -1.04000000    1.28051   17.21746    4.16318    0    0    0
      50       17        2  0.52000000    1.27204   16.83477    3.28607    0    0    0
      51       17        2  0.52000000    0.44745   16.94777    4.55075    0    0    0
      52       18        1 -1.04000000    1.94768   19.32902   17.79601    0    0    0
      53       18        2  0.52000000    2.07002   18.44272   17.45636    0    0    0
      54       18        2  0.52000000    1.98230   19.22826   18.74763    0    0    0
      55       19        1 -1.04000000   14.98965    0.36651    5.86521    0    0    0
      56       19        2  0.52000000   15.10929    0.07857    6.76999    0    0    0
      57       19        2  0.52000000   14.90106   -0.44508    5.36480    0    0    0
      58       20        1 -1.04000000    8.04558   13.03362    9.38651    0    0    0
      59       20        2  0.52000000    7.41224   12.49148    8.91661    0    0    0
      60       20        2  0.52000000    8.54217   13.47490    8.69688    0    0    0
      61       21        1 -1.04000000   12.92291    4.32382    7.20445    0    0    0
      62       21        2  0.52000000   12.77319    4.17075    6.27171    0    0    0
      63       21        2  0.52000000   13.30389    3.50543    7.52384    0    0    0
      64       22        1 -1.04000000    6.63479    8.88200   13.07281    0    0    0
      65       22        2  0.52000000    7.11284    9.59830   13.49022    0    0    0
      66       22        2  0.52000000    7.25237    8.51971   12.43698    0    0    0
      67       23        1 -1.04000000   14.06644   15.81133    5.66446    0    0    0
      68       23        2  0.52000000   13.98689   16.75540    5.79951    0    0    0
      69       23        2  0.52000000   13.94667   15.43327    6.53604    0    0    0
      70       24        1 -1.04000000   19.14130    3.69689    3.79810    0    0    0
      71       24        2  0.52000000   18.23887    3.84188    4.08173    0    0    0
      72       24        2  0.52000000   19.61983    4.46123    4.12017    0    0    0
      73       25        1 -1.04000000    4.33334    7.02510    4.79787    0    0    0
      74       25        2  0.52000000    3.92488    7.70001    5.33963    0    0    0
      75       25        2  0.52000000    3.74178    6.27489    4.86250    0    0    0
      76       26        1 -1.04000000   11.22710   13.72150    8.15317    0    0    0
      77       26        2  0.52000000   11.25042   14.07222    7.26306    0    0    0
      78       26        2  0.52000000   10.52247   14.20628    8.58377    0    0    0
      79       27        1 -1.04000000   17.18558   12.18374   13.70948    0    0    0
      80       27        2  0.52000000   17.54507   11.53930   14.31884    0    0    0
      81       27        2  0.52000000   16.26935   12.27696   13.97168    0    0    0
      82       28        1 -1.04000000    7.75188   12.22196   12.79563    0    0    0
      83       28        2  0.52000000    7.86081   12.18816   13.74581    0    0    0
      84       28        2  0.52000000    8.38732   11.58988   12.45857    0    0    0
      85       29        1 -1.04000000    2.80390    9.18915    8.72006    0    0    0
      86       29        2  0.52000000    3.70973    8.88147    8.69465    0    0    0
      87       29        2  0.52000000    2.48637    8.92938    9.58529    0    0    0
      88       30        1 -1.04000000   16.79485    2.11433   -0.31216    0    0    0
      89       30        2  0.52000000   17.73404    1.93775   -0.26136    0    0    0
      90       30        2  0.52000000   16.47111    1.94792    0.57352    0    0    0
      91       31        1 -1.04000000   17.36211   10.13266   18.93773    0    0    0
      92       31        2  0.52000000   16.95296    9.35117   18.56662    0    0    0
      93       31        2  0.52000000   16.68492   10.51617   19.49564    0    0    0
      94       32        1 -1.04000000   10.78127    5.78832   15.24485    0    0    0
      95       32        2  0.52000000   10.81926    6.74153   15.16872    0    0    0
      96       32        2  0.52000000   11.39947    5.47015   14.58643    0    0    0
      97       33        1 -1.04000000   12.91999   11.32243   18.79447    0    0    0
      98       33        2  0.52000000   13.21014   11.26521   19.70463    0    0    0
      99       33        2  0.52000000   12.86986   10.41236   18.50089    0    0    0
     100       34        1 -1.04000000   17.34380    8.95292    4.17940    0    0    0
     101       34        2  0.52000000   17.11817    8.72629    3.27742    0    0    0
     102       34        2  0.52000000   16.53803    9.32078    4.54318    0    0    0
     103       35        1 -1.04000000   11.68804    1.89828   18.78802    0    0    0
     104       35        2  0.52000000   11.94139    1.57136   19.65103    0    0    0
     105       35        2  0.52000000   12.37057    2.53036   18.56095    0    0    0
     106       36        1 -1.04000000   17.61059    3.00636   14.96969    0    0    0
     107       36        2  0.52000000   18.13708    2.62384   15.67135    0    0    0
     108       36        2  0.52000000   18.25234    3.36980   14.35895    0    0    0
     109       37        1 -1.04000000   18.99880   16.66528   11.79860    0    0    0
     110       37        2  0.52000000   18.93304   16.77841   12.74661    0    0    0
     111       37        2  0.52000000   19.06816   17.55630   11.45480    0    0    0
     112       38        1 -1.04000000   15.28106    0.08819    9.25657    0    0    0
     113       38        2  0.52000000   15.08480    0.52725    8.42920    0    0    0
     114       38        2  0.52000000   14.63413   -0.61544    9.31423    0    0    0
     115       39        1 -1.04000000   11.15119    1.65250    6.90518    0    0    0
     116       39        2  0.52000000   10.54504    1.85242    7.61826    0    0    0
     117       39        2  0.52000000   11.30377    2.49507    6.47656    0    0    0
     118       40        1 -1.04000000    8.27104   17.78380    0.82000    0    0    0
     119       40        2  0.52000000    7.69883   18.44631    0.43334    0    0    0
     120       40        2  0.52000000    8.03013   17.76989    1.74666    0    0    0
     121       41        1 -1.04000000   11.31842    5.79473   11.09528    0    0    0
     122       41        2  0.52000000   11.22123    6.74644   11.06987    0    0    0
     123       41        2  0.52000000   10.46035    5.45882   10.83486    0    0    0
     124       42        1 -1.04000000   11.30294   17.03117   12.24466    0    0    0
     125       42        2  0.52000000   11.32165   17.02127   11.28790    0    0    0
     126       42        2  0.52000000   10.37541   16.94756   12.46744    0    0    0
     127       43        1 -1.04000000   18.64269    2.11840   12.89554    0    0    0
     128       43        2  0.52000000   19.46067    2.22762   12.41095    0    0    0
     129       43        2  0.52000000   18.89665    1.65399   13.69351    0    0    0
     130       44        1 -1.04000000   19.38995   17.98837   19.02013    0    0    0
     131       44        2  0.52000000   18.76646   17.35095   19.36769    0    0    0
     132       44        2  0.52000000   18.84359   18.66068   18.61218    0    0    0
     133       45        1 -1.04000000    9.12800   13.35949   17.91644    0    0    0
     134       45        2  0.52000000    8.75153   13.04861   18.73953    0    0    0
     135       45        2  0.52000000    9.12047   12.59189   17.34403    0    0    0
     136       46        1 -1.04000000    5.65955   19.85882    5.87052    0    0    0
     137       46        2  0.52000000    6.24249   19.47349    6.52440    0    0    0
     138       46        2  0.52000000    6.09796   20.66769    5.60509    0    0    0
     139       47        1 -1.04000000    0.64560   11.85512    5.07755    0    0    0
     140       47        2  0.52000000    1.19262   11.68537    4.31086    0    0    0
     141       47        2  0.52000000    1.16178   12.45951    5.61159    0    0    0
     142       48        1 -1.04000000    2.97113   17.15020   13.64054    0    0    0
     143       48        2  0.52000000    2.32986   16.61103   14.10305    0    0    0
     144       48        2  0.52000000    3.69901   17.23876   14.25640    0    0    0
     145       49        1 -1.04000000   20.22605    1.95135    8.31486    0    0    0
     146       49        2  0.52000000   20.14640    2.73135    7.76613    0    0    0
     147       49        2  0.52000000   19.62755    1.31730    7.91901    0    0    0
     148       50        1 -1.04000000    8.00523   15.66504    9.20094    0    0    0
     149       50        2  0.52000000    7.32406   16.33724    9.20094    0    0    0
     150       50        2  0.52000000    8.67071   15.99772    8.59812    0    0    0
     151       51        1 -1.04000000   18.98253   12.64048    1.84820    0    0    0
     152       51        2  0.52000000   18.86741   13.47444    1.39309    0    0    0
     153       51        2  0.52000000   19.15006   12.88508    2.75871    0    0    0
     154       52        1 -1.04000000   15.25085   14.17263   17.75530    0    0    0
     155       52        2  0.52000000   14.85782   14.54041   18.54658    0    0    0
     156       52        2  0.52000000   14.89133   13.28696   17.69811    0    0    0
     157       53        1 -1.04000000   11.22237   13.17089    2.27194    0    0    0
     158       53        2  0.52000000   10.49720   12.56119    2.40699    0    0    0
     159       53        2  0.52000000   11.28043   13.26793    1.32107    0    0    0
     160       54        1 -1.04000000    2.63327    4.09496   17.09538    0    0    0
     161       54        2  0.52000000    3.43560    4.30550   17.57264    0    0    0
     162       54        2  0.52000000    2.93112    3.59954   16.33198    0    0    0
     163       55        1 -1.04000000    9.88565    1.68421   15.19951    0    0    0
     164       55        2  0.52000000   10.05248    1.75440   14.25978    0    0    0
     165       55        2  0.52000000   10.06187    2.56139   15.54072    0    0    0
     166       56        1 -1.04000000    8.72179   20.16076   10.22216    0    0    0
     167       56        2  0.52000000    8.80332   20.19591    9.26929    0    0    0
     168       56        2  0.52000000    9.47490   19.64333   10.50855    0    0    0
     169       57        1 -1.04000000    9.33403    0.07806    8.18691    0    0    0
     170       57        2  0.52000000    9.10246    0.29862    7.28492    0    0    0
     171       57        2  0.52000000    8.56351   -0.37668    8.52816    0    0    0
     172       58        1 -1.04000000   16.31495   13.13069    4.80940    0    0    0
     173       58        2  0.52000000   16.18859   12.27150    5.21150    0    0    0
     174       58        2  0.52000000   15.49646   13.59781    4.97911    0    0    0
     175       59        1 -1.04000000    9.32798   18.11055    9.18112    0    0    0
     176       59        2  0.52000000    9.18842   17.99531    8.24140    0    0    0
     177       59        2  0.52000000    8.48359   17.89414    9.57748    0    0    0
     178       60        1 -1.04000000    5.04282   13.26776   18.71880    0    0    0
     179       60        2  0.52000000    4.68993   13.39464   19.59927    0    0    0
     180       60        2  0.52000000    5.26726   12.33760   18.68193    0    0    0
     181       61        1 -1.04000000   16.30631   15.21465    2.11269    0    0    0
     182       61        2  0.52000000   16.22698   14.67520    1.32621    0    0    0
     183       61        2  0.52000000   15.46670   15.11015    2.56109    0    0    0
     184       62        1 -1.04000000    2.10794    8.70240    3.22888    0    0    0
     185       62        2  0.52000000    1.72769    8.65846    2.35177    0    0    0
     186       62        2  0.52000000    2.16437    9.63913    3.41935    0    0    0
     187       63        1 -1.04000000    8.73194   17.25634   11.12262    0    0    0
     188       63        2  0.52000000    9.26150   17.29860   10.32661    0    0    0
     189       63        2  0.52000000    9.00656   16.44505   11.55078    0    0    0
     190       64        1 -1.04000000   12.67798   11.00745    9.77899    0    0    0
     191       64        2  0.52000000   12.81049   11.41527   10.63454    0    0    0
     192       64        2  0.52000000   13.51154   10.57728    9.58647    0    0    0
     193       65        1 -1.04000000    4.69380   10.78129   15.89508    0    0    0
     194       65        2  0.52000000    4.78380   11.32609   16.67670    0    0    0
     195       65        2  0.52000000    5.52240   10.89262   15.42822    0    0    0
     196       66        1 -1.04000000    2.08680    0.19032    5.32992    0    0    0
     197       66        2  0.52000000    2.36558    0.40440    4.43981    0    0    0
     198       66        2  0.52000000    1.54762   -0.59472    5.23027    0    0    0
     199       67        1 -1.04000000   11.70760   17.74100   18.99520    0    0    0
     200       67        2  0.52000000   12.52362   17.71210   18.49607    0    0    0
     201       67        2  0.52000000   11.76879   18.54690   19.50873    0    0    0
     202       68        1 -1.04000000   11.01109   11.63844   13.14748    0    0    0
     203       68        2  0.52000000   11.05145   12.46695   13.62475    0    0    0
     204       68        2  0.52000000   10.93746   11.89461   12.22776    0    0    0
     205       69        1 -1.04000000   12.97239    0.32438    0.21591    0    0    0
     206       69        2  0.52000000   12.55791    0.14567   -0.62796    0    0    0
     207       69        2  0.52000000   13.46970   -0.47006    0.41206    0    0    0
     208       70        1 -1.04000000   13.61776   14.05027   11.93703    0    0    0
     209       70        2  0.52000000   14.27542   14.72262   12.11387    0    0    0
     210       70        2  0.52000000   14.10683   13.22711   11.94910    0    0    0
     211       71        1 -1.04000000    2.78206    1.05422   17.31963    0    0    0
     212       71        2  0.52000000    3.55754    0.50121   17.22663    0    0    0
     213       71        2  0.52000000    2.66040    1.44457   16.45374    0    0    0
     214       72        1 -1.04000000   16.23282   14.69409   15.93058    0    0    0
     215       72        2  0.52000000   15.61640   15.10943   15.32778    0    0    0
     216       72        2  0.52000000   16.15078   15.19647   16.74164    0    0    0
     217       73        1 -1.04000000   12.11479    8.66871   15.82775    0    0    0
     218       73        2  0.52000000   11.43639    8.77770   16.49390    0    0    0
     219       73        2  0.52000000   12.44882    9.55360   15.67836    0    0    0
     220       74        1 -1.04000000   14.63148   18.97902    4.87212    0    0    0
     221       74        2  0.52000000   14.95803   19.44125    5.64385    0    0    0
     222       74        2  0.52000000   15.41050   18.57973    4.48403    0    0    0
     223       75        1 -1.04000000    4.17829    9.73713   12.77259    0    0    0
     224       75        2  0.52000000    3.23847    9.89666   12.85716    0    0    0
     225       75        2  0.52000000    4.58324   10.36621   13.37025    0    0    0
     226       76        1 -1.04000000    0.08058    1.70719   18.75430    0    0    0
     227       76        2  0.52000000   -0.71257    2.24161   18.78817    0    0    0
     228       76        2  0.52000000    0.63199    2.05120   19.45753    0    0    0
     229       77        1 -1.04000000   16.38104   15.07053    8.95065    0    0    0
     230       77        2  0.52000000   15.97123   14.49044    9.59206    0    0    0
     231       77        2  0.52000000   15.64773   15.43903    8.45730    0    0    0
     232       78        1 -1.04000000    0.61933   14.06560   18.05822    0    0    0
     233       78        2  0.52000000    1.07806   13.22588   18.07516    0    0    0
     234       78        2  0.52000000    1.30261   14.70852   17.86661    0    0    0
     235       79        1 -1.04000000    7.80630    8.25794    3.22034    0    0    0
     236       79        2  0.52000000    8.46253    7.62172    3.50396    0    0    0
     237       79        2  0.52000000    7.73117    8.12034    2.27570    0    0    0
     238       80        1 -1.04000000   17.85426    4.74092   -0.25346    0    0    0
     239       80        2  0.52000000   17.84026    4.69651    0.70241    0    0    0
     240       80        2  0.52000000   18.30548    5.56257   -0.44895    0    0    0
     241       81        1 -1.04000000    3.93539    3.26451   10.71989    0    0    0
     242       81        2  0.52000000    3.54638    3.23000   11.59358    0    0    0
     243       81        2  0.52000000    4.51823    2.50549   10.68653    0    0    0
     244       82        1 -1.04000000   16.27411    5.72373   12.03382    0    0    0
     245       82        2  0.52000000   15.51943    5.87255   12.60317    0    0    0
     246       82        2  0.52000000   16.20647    6.40371   11.36301    0    0    0
     247       83        1 -1.04000000    2.76883    5.02994    8.68652    0    0    0
     248       83        2  0.52000000    2.87286    5.65967    9.39960    0    0    0
     249       83        2  0.52000000    3.35830    4.31039    8.91388    0    0    0
     250       84        1 -1.04000000   13.79969    2.68131    0.89553    0    0    0
     251       84        2  0.52000000   13.49336    3.41855    1.42325    0    0    0
     252       84        2  0.52000000   14.70695    2.90014    0.68122    0    0    0
     253       85        1 -1.04000000   13.84103   12.93187   13.35027    0    0    0
     254       85        2  0.52000000   13.98078   13.77785   12.92525    0    0    0
     255       85        2  0.52000000   14.17819   12.29028   12.72448    0    0    0
     256       86        1 -1.04000000   16.27680    2.15209   12.22989    0    0    0
     257       86        2  0.52000000   15.74613    1.37198   12.39005    0    0    0
     258       86        2  0.52000000   15.97707    2.47593   11.38006    0    0    0
     259       87        1 -1.04000000   15.74559    4.21210   15.79290    0    0    0
     260       87        2  0.52000000   16.69180    4.14499   15.66624    0    0    0
     261       87        2  0.52000000   15.56261    3.64291   16.54087    0    0    0
     262       88        1 -1.04000000    3.02359    8.91278   11.61995    0    0    0
     263       88        2  0.52000000    3.74353    9.07470   12.22931    0    0    0
     264       88        2  0.52000000    2.23287    9.01252   12.15074    0    0    0
     265       89        1 -1.04000000   11.92827   17.38374   15.01411    0    0    0
     266       89        2  0.52000000   11.30829   16.67863   14.82895    0    0    0
     267       89        2  0.52000000   12.76344   16.93763   15.15694    0    0    0
     268       90        1 -1.04000000   10.80879   14.22688   19.25410    0    0    0
     269       90        2  0.52000000   11.06763   14.44062   18.35791    0    0    0
     270       90        2  0.52000000   11.12359   13.33250   19.38799    0    0    0
     271       91        1 -1.04000000   18.93936    4.38586    9.00585    0    0    0
     272       91        2  0.52000000   19.64925    3.89835    9.42326    0    0    0
     273       91        2  0.52000000   18.41139    3.71579    8.57090    0    0    0
     274       92        1 -1.04000000    4.38475   17.01571    5.93428    0    0    0
     275       92        2  0.52000000    3.93435   16.63017    6.68551    0    0    0
     276       92        2  0.52000000    3.68090   17.35412    5.38021    0    0    0
     277       93        1 -1.04000000   17.99297    2.78613    7.32682    0    0    0
     278       93        2  0.52000000   17.89954    2.48029    6.42484    0    0    0
     279       93        2  0.52000000   18.10749    3.73358    7.24834    0    0    0
     280       94        1 -1.04000000    2.15603    6.69011    5.17951    0    0    0
     281       94        2  0.52000000    1.95183    7.54485    5.55841    0    0    0
     282       94        2  0.52000000    1.89214    6.76504    4.26208    0    0    0
     283       95        1 -1.04000000   11.25455    0.13123    0.73433    0    0    0
     284       95        2  0.52000000   10.81074   -0.71646    0.75127    0    0    0
     285       95        2  0.52000000   10.93471    0.58523    1.51440    0    0    0
     286       96        1 -1.04000000    4.13341   15.34319    2.86953    0    0    0
     287       96        2  0.52000000    3.36875   14.85697    2.56173    0    0    0
     288       96        2  0.52000000    4.49783   14.79984    3.56874    0    0    0
     289       97        1 -1.04000000   15.82188    6.30832    7.83933    0    0    0
     290       97        2  0.52000000   15.93533    6.11707    8.77014    0    0    0
     291       97        2  0.52000000   16.24279    5.57461    7.39052    0    0    0
     292       98        1 -1.04000000   12.00191    2.83236   11.35284    0    0    0
     293       98        2  0.52000000   12.58859    2.65599   10.61762    0    0    0
     294       98        2  0.52000000   11.40949    3.51166   11.02954    0    0    0
     295       99        1 -1.04000000   18.21927   12.31668   10.06511    0    0    0
     296       99        2  0.52000000   18.29157   11.45855   10.48252    0    0    0
     297       99        2  0.52000000   17.48917   12.22477    9.45238    0    0    0
     298      100        1 -1.04000000    8.76326   19.18026   18.25311    0    0    0
     299      100        2  0.52000000    8.93132   19.41373   17.34037    0    0    0
     300      100        2  0.52000000    9.30541   18.40601   18.40652    0    0    0
     301      101        1 -1.04000000    5.16555   15.34802    1.93614    0    0    0
     302      101        2  0.52000000    4.26403   15.08567    1.75099    0    0    0
     303      101        2  0.52000000    5.57043   14.56631    2.31287    0    0    0
     304      102        1 -1.04000000   -0.31683   13.79628    9.10354    0    0    0
     305      102        2  0.52000000    0.46049   13.97835    9.63126    0    0    0
     306      102        2  0.52000000   -0.14366   14.22537    8.26520    0    0    0
     307      103        1 -1.04000000    2.13815    9.82179   15.31899    0    0    0
     308      103        2  0.52000000    2.24618    9.55518   14.40625    0    0    0
     309      103        2  0.52000000    1.61567   10.62303   15.27475    0    0    0
     310      104        1 -1.04000000   12.70487    8.04486   15.74804    0    0    0
     311      104        2  0.52000000   12.65439    7.79472   16.67039    0    0    0
     312      104        2  0.52000000   13.64074    8.16042   15.58158    0    0    0
     313      105        1 -1.04000000    5.82469   16.79707    3.71594    0    0    0
     314      105        2  0.52000000    6.76373   16.88876    3.87610    0    0    0
     315      105        2  0.52000000    5.41158   17.31417    4.40796    0    0    0
     316      106        1 -1.04000000    7.23275   18.74312    1.18011    0    0    0
     317      106        2  0.52000000    6.64159   18.58238    0.44489    0    0    0
     318      106        2  0.52000000    7.12565   19.67450    1.37500    0    0    0
     319      107        1 -1.04000000   19.24499    9.09067    1.29045    0    0    0
     320      107        2  0.52000000   18.32383    8.84021    1.35813    0    0    0
     321      107        2  0.52000000   19.43119    9.06912    0.35141    0    0    0
     322      108        1 -1.04000000   17.93817   10.61921   18.93856    0    0    0
     323      108        2  0.52000000   17.90258   11.09146   19.77016    0    0    0
     324      108        2  0.52000000   18.15925   11.28933   18.29128    0    0    0
     325      109        1 -1.04000000   15.75722    2.75401    3.81793    0    0    0
     326      109        2  0.52000000   16.69486    2.87077    3.66613    0    0    0
     327      109        2  0.52000000   15.54791    3.37522    4.51594    0    0    0
     328      110        1 -1.04000000    9.91219    3.75157    6.28840    0    0    0
     329      110        2  0.52000000   10.58137    4.43570    6.28840    0    0    0
     330      110        2  0.52000000    9.50644    3.81273    5.42321    0    0    0
     331      111        1 -1.04000000    2.15740    3.94077    5.64741    0    0    0
     332      111        2  0.52000000    2.60220    4.21810    6.44809    0    0    0
     333      111        2  0.52000000    1.24039    3.84113    5.90449    0    0    0
     334      112        1 -1.04000000   20.13028   11.92631   19.36083    0    0    0
     335      112        2  0.52000000   19.66798   12.70566   19.05304    0    0    0
     336      112        2  0.52000000   20.20173   11.36803   18.58613    0    0    0
     337      113        1 -1.04000000    9.02656   16.88774    0.37322    0    0    0
     338      113        2  0.52000000    8.23160   17.02993   -0.14028    0    0    0