Created by /global/cfs/cdirs/m5056/rsb/codes/ATLAS-toolkit/scripts/createLammpsInput.pl on Thu Apr  9 14:47:54 2026

         825 atoms
         530 bonds
         255 angles

           6 atom types
           2 bond types
           1 angle types

		   0.000000  20.249170 xlo xhi
		   0.000000  20.249170 ylo yhi
		   0.000000  20.249170 zlo zhi

Masses

    1 1.5999E+01 # OW     
    2 1.0080E+00 # HW     
    3 6.9410E+00 # Li     
    4 3.9948E+01 # K_     
    5 1.5999E+01 # O_3    
    6 1.0080E+00 # H_     

Atoms

       1        1        1 -1.04000000    4.29003    2.93527    3.25357    0    0    0
       2        1        2  0.52000000    4.34925    3.00143    2.30069    0    0    0
       3        1        2  0.52000000    3.36072    3.06330    3.44574    0    0    0
       4        2        1 -1.04000000    2.95615   15.99225    2.38810    0    0    0
       5        2        2  0.52000000    2.84957   15.26754    1.77223    0    0    0
       6        2        2  0.52000000    3.19427   16.74021    1.83967    0    0    0
       7        3        1 -1.04000000    6.07014   18.23513   16.69603    0    0    0
       8        3        2  0.52000000    6.45395   17.37649   16.87287    0    0    0
       9        3        2  0.52000000    5.47590   18.38838   17.43110    0    0    0
      10        4        1 -1.04000000    7.01093    7.31479    0.23106    0    0    0
      11        4        2  0.52000000    7.71343    6.96658   -0.31766    0    0    0
      12        4        2  0.52000000    6.27564    6.71863    0.08660    0    0    0
      13        5        1 -1.04000000   13.37414    9.03543   13.89339    0    0    0
      14        5        2  0.52000000   12.68772    9.70093   13.85105    0    0    0
      15        5        2  0.52000000   12.93814    8.26364   14.25556    0    0    0
      16        6        1 -1.04000000   17.12843   15.31500    2.80794    0    0    0
      17        6        2  0.52000000   17.35602   15.03689    3.69491    0    0    0
      18        6        2  0.52000000   16.51556   14.64811    2.49715    0    0    0
      19        7        1 -1.04000000   18.95181    3.17470   11.34606    0    0    0
      20        7        2  0.52000000   19.21524    3.57708   10.51869    0    0    0
      21        7        2  0.52000000   18.83295    2.24822   11.13525    0    0    0
      22        8        1 -1.04000000    8.80167    4.33637   10.01084    0    0    0
      23        8        2  0.52000000    8.87486    3.67733   10.70088    0    0    0
      24        8        2  0.52000000    9.32347    3.98630    9.28828    0    0    0
      25        9        1 -1.04000000   18.81994    8.06259   12.65903    0    0    0
      26        9        2  0.52000000   18.49520    7.56655   13.41025    0    0    0
      27        9        2  0.52000000   19.68486    8.37085   12.93072    0    0    0
      28       10        1 -1.04000000    6.34279   18.88301    6.85368    0    0    0
      29       10        2  0.52000000    6.02808   18.79142    7.75280    0    0    0
      30       10        2  0.52000000    5.62913   19.32557    6.39351    0    0    0
      31       11        1 -1.04000000   20.30341    8.86358    7.79522    0    0    0
      32       11        2  0.52000000   20.15963    8.80309    8.73942    0    0    0
      33       11        2  0.52000000   19.53696    9.33333    7.46535    0    0    0
      34       12        1 -1.04000000    0.06372    3.11446    9.63198    0    0    0
      35       12        2  0.52000000    0.29130    3.57875   10.43726    0    0    0
      36       12        2  0.52000000   -0.35502    2.30680    9.93076    0    0    0
      37       13        1 -1.04000000   15.92075    6.26701   17.27391    0    0    0
      38       13        2  0.52000000   16.76199    5.85002   17.08876    0    0    0
      39       13        2  0.52000000   15.31726    5.88296   16.63733    0    0    0
      40       14        1 -1.04000000    8.69125    8.19310   11.14138    0    0    0
      41       14        2  0.52000000    9.53284    8.55596   10.86586    0    0    0
      42       14        2  0.52000000    8.77590    7.25094   10.99276    0    0    0
      43       15        1 -1.04000000    3.35580   15.10076    5.12591    0    0    0
      44       15        2  0.52000000    2.96147   15.28760    4.27419    0    0    0
      45       15        2  0.52000000    2.68273   14.61164    5.59990    0    0    0
      46       16        1 -1.04000000    1.64313    5.00720    6.15872    0    0    0
      47       16        2  0.52000000    1.87012    4.96659    5.22992    0    0    0
      48       16        2  0.52000000    2.48675    5.02621    6.61136    0    0    0
      49       17        1 -1.04000000    3.88659   13.02317    1.62690    0    0    0
      50       17        2  0.52000000    3.57278   13.54169    2.36751    0    0    0
      51       17        2  0.52000000    4.54062   12.43515    2.00559    0    0    0
      52       18        1 -1.04000000    3.72816    6.24668    1.13364    0    0    0
      53       18        2  0.52000000    3.61949    5.55057    0.48597    0    0    0
      54       18        2  0.52000000    4.65235    6.20275    1.38040    0    0    0
      55       19        1 -1.04000000    5.28895    1.21111   17.15666    0    0    0
      56       19        2  0.52000000    5.01070    0.32826   17.39957    0    0    0
      57       19        2  0.52000000    4.70035    1.46063   16.44376    0    0    0
      58       20        1 -1.04000000   15.89274    8.30793   10.78488    0    0    0
      59       20        2  0.52000000   15.69889    8.14199   11.70723    0    0    0
      60       20        2  0.52000000   16.40837    7.55008   10.50789    0    0    0
      61       21        1 -1.04000000   15.04716    5.75411   19.70014    0    0    0
      62       21        2  0.52000000   15.09144    5.55307   20.63474    0    0    0
      63       21        2  0.52000000   14.86140    6.69283   19.66512    0    0    0
      64       22        1 -1.04000000   10.16495   16.34078    4.90377    0    0    0
      65       22        2  0.52000000    9.34117   15.97692    4.57998    0    0    0
      66       22        2  0.52000000   10.49388   15.68230    5.51625    0    0    0
      67       23        1 -1.04000000    0.84667   15.35922   19.00731    0    0    0
      68       23        2  0.52000000    0.61905   14.61404   19.56295    0    0    0
      69       23        2  0.52000000    1.53428   15.02674   18.42974    0    0    0
      70       24        1 -1.04000000    2.30931   16.23785    5.98111    0    0    0
      71       24        2  0.52000000    2.25661   15.32289    5.70558    0    0    0
      72       24        2  0.52000000    1.43409   16.43926    6.31331    0    0    0
      73       25        1 -1.04000000   13.97952    1.35426    1.83666    0    0    0
      74       25        2  0.52000000   13.61563    1.07483    2.67651    0    0    0
      75       25        2  0.52000000   14.40485    0.57090    1.48683    0    0    0
      76       26        1 -1.04000000   10.86574   16.84514    9.33256    0    0    0
      77       26        2  0.52000000   10.35644   17.20833    8.60830    0    0    0
      78       26        2  0.52000000   11.77782   16.94653    9.05915    0    0    0
      79       27        1 -1.04000000    7.84627   15.93076   15.35238    0    0    0
      80       27        2  0.52000000    7.39409   16.23544   14.56590    0    0    0
      81       27        2  0.52000000    8.75965   15.83379   15.08171    0    0    0
      82       28        1 -1.04000000   18.12312   13.36558    7.06159    0    0    0
      83       28        2  0.52000000   18.58693   12.55115    7.25505    0    0    0
      84       28        2  0.52000000   17.28995   13.08327    6.68336    0    0    0
      85       29        1 -1.04000000    1.62898    2.07255    2.90160    0    0    0
      86       29        2  0.52000000    2.36137    2.68832    2.91854    0    0    0
      87       29        2  0.52000000    2.00965    1.23913    3.17986    0    0    0
      88       30        1 -1.04000000   17.94095    2.71258    3.74211    0    0    0
      89       30        2  0.52000000   17.56596    3.59301    3.73364    0    0    0
      90       30        2  0.52000000   18.49309    2.69440    4.52425    0    0    0
      91       31        1 -1.04000000    9.83015    3.18099    1.30165    0    0    0
      92       31        2  0.52000000   10.09297    2.26270    1.24239    0    0    0
      93       31        2  0.52000000   10.07688    3.55630    0.45596    0    0    0
      94       32        1 -1.04000000   16.23194    8.96374    5.68776    0    0    0
      95       32        2  0.52000000   16.47565    8.88811    6.61012    0    0    0
      96       32        2  0.52000000   15.29241    9.14814    5.70212    0    0    0
      97       33        1 -1.04000000   11.97396   16.14332   16.36247    0    0    0
      98       33        2  0.52000000   12.73812   16.14332   15.78635    0    0    0
      99       33        2  0.52000000   11.28792   15.71335   15.85118    0    0    0
     100       34        1 -1.04000000    7.76120   -0.24641   17.18671    0    0    0
     101       34        2  0.52000000    8.36132   -0.44434   16.46801    0    0    0
     102       34        2  0.52000000    7.87748    0.69075   17.34528    0    0    0
     103       35        1 -1.04000000    3.77290    1.10135    2.69874    0    0    0
     104       35        2  0.52000000    4.72735    1.03365    2.71568    0    0    0
     105       35        2  0.52000000    3.49975    0.86500    3.58557    0    0    0
     106       36        1 -1.04000000   18.23121    5.75952   18.20326    0    0    0
     107       36        2  0.52000000   17.99175    5.69894   17.27868    0    0    0
     108       36        2  0.52000000   17.77704    6.54154   18.51806    0    0    0
     109       37        1 -1.04000000   17.61764    3.94770   16.06054    0    0    0
     110       37        2  0.52000000   18.12498    3.71279   15.28383    0    0    0
     111       37        2  0.52000000   18.25739    4.33950   16.65563    0    0    0
     112       38        1 -1.04000000    9.61593   14.92877   17.99562    0    0    0
     113       38        2  0.52000000   10.08807   15.56077   18.53739    0    0    0
     114       38        2  0.52000000   10.29600   14.51046   17.46699    0    0    0
     115       39        1 -1.04000000   17.82849   16.97536   12.35011    0    0    0
     116       39        2  0.52000000   18.21565   16.26665   11.83661    0    0    0
     117       39        2  0.52000000   17.95586   17.75799   11.81327    0    0    0
     118       40        1 -1.04000000   19.28720    4.88453   13.76171    0    0    0
     119       40        2  0.52000000   19.29586    4.91288   14.71825    0    0    0
     120       40        2  0.52000000   18.41693    5.20259   13.52004    0    0    0
     121       41        1 -1.04000000    4.97304   15.38678   13.04771    0    0    0
     122       41        2  0.52000000    4.97006   14.71158   13.72589    0    0    0
     123       41        2  0.52000000    5.05690   14.90164   12.22640    0    0    0
     124       42        1 -1.04000000    6.36598    3.11026    8.91934    0    0    0
     125       42        2  0.52000000    5.57656    3.28050    8.40584    0    0    0
     126       42        2  0.52000000    6.05746    2.60924    9.67481    0    0    0
     127       43        1 -1.04000000    6.98175    8.61842   -0.08162    0    0    0
     128       43        2  0.52000000    7.46880    9.29504   -0.55153    0    0    0
     129       43        2  0.52000000    6.54945    9.08655    0.63315    0    0    0
     130       44        1 -1.04000000    2.28678   16.96990   15.73646    0    0    0
     131       44        2  0.52000000    2.30911   17.42818   16.57630    0    0    0
     132       44        2  0.52000000    1.40412   16.60191   15.68725    0    0    0
     133       45        1 -1.04000000   20.21594    2.09436   17.68844    0    0    0
     134       45        2  0.52000000   19.89804    2.67629   18.37848    0    0    0
     135       45        2  0.52000000   19.88602    1.22935   17.93308    0    0    0
     136       46        1 -1.04000000    5.79371   10.90559    0.31802    0    0    0
     137       46        2  0.52000000    5.70027   11.68406   -0.23071    0    0    0
     138       46        2  0.52000000    6.50602   10.41035   -0.08731    0    0    0
     139       47        1 -1.04000000   12.18741    1.28200   10.19482    0    0    0
     140       47        2  0.52000000   12.24633    1.07615    9.26208    0    0    0
     141       47        2  0.52000000   11.56626    0.64185   10.54310    0    0    0
     142       48        1 -1.04000000   12.85345    5.71983   10.22941    0    0    0
     143       48        2  0.52000000   13.61570    5.66576    9.65329    0    0    0
     144       48        2  0.52000000   12.53085    6.61441   10.11730    0    0    0
     145       49        1 -1.04000000   15.16694   13.21629   17.72080    0    0    0
     146       49        2  0.52000000   14.27542   12.86879   17.73774    0    0    0
     147       49        2  0.52000000   15.55763   12.91492   18.54145    0    0    0
     148       50        1 -1.04000000   17.34670    1.04490   11.82568    0    0    0
     149       50        2  0.52000000   16.58675    0.56168   11.50189    0    0    0
     150       50        2  0.52000000   17.06655    1.39342   12.67243    0    0    0
     151       51        1 -1.04000000   13.25757    1.82561    6.76368    0    0    0
     152       51        2  0.52000000   13.20398    1.76574    7.71730    0    0    0
     153       51        2  0.52000000   12.53845    2.40865    6.51902    0    0    0
     154       52        1 -1.04000000   10.25717   12.70771    7.96789    0    0    0
     155       52        2  0.52000000   10.00138   13.33903    7.29568    0    0    0
     156       52        2  0.52000000    9.74145   12.95327    8.73643    0    0    0
     157       53        1 -1.04000000   13.01252   17.28175    7.27030    0    0    0
     158       53        2  0.52000000   12.69991   17.34917    6.36831    0    0    0
     159       53        2  0.52000000   13.28758   16.36908    7.36139    0    0    0
     160       54        1 -1.04000000   17.91004   16.20849   15.68213    0    0    0
     161       54        2  0.52000000   17.96630   16.51517   16.58691    0    0    0
     162       54        2  0.52000000   18.12365   15.27633   15.73096    0    0    0
     163       55        1 -1.04000000   17.11233   17.83802    0.33726    0    0    0
     164       55        2  0.52000000   16.21896   17.98967    0.02947    0    0    0
     165       55        2  0.52000000   17.66872   18.17231   -0.36674    0    0    0
     166       56        1 -1.04000000    0.68233    9.10362    3.20236    0    0    0
     167       56        2  0.52000000    1.36243    9.67544    2.84692    0    0    0
     168       56        2  0.52000000    0.95524    8.22094    2.95072    0    0    0
     169       57        1 -1.04000000    4.72104    7.27342   18.99505    0    0    0
     170       57        2  0.52000000    5.28150    6.99561   18.27079    0    0    0
     171       57        2  0.52000000    4.99746    6.73097   19.73415    0    0    0
     172       58        1 -1.04000000    2.87274   14.25693   10.73468    0    0    0
     173       58        2  0.52000000    2.70018   13.31623   10.76856    0    0    0
     174       58        2  0.52000000    3.42708   14.42684   11.49676    0    0    0
     175       59        1 -1.04000000    1.23228   10.21586    9.77185    0    0    0
     176       59        2  0.52000000    1.18571   10.21668   10.72771    0    0    0
     177       59        2  0.52000000    0.58201    9.56745    9.50044    0    0    0
     178       60        1 -1.04000000   10.66314   12.14343   18.13621    0    0    0
     179       60        2  0.52000000   11.03161   12.24713   17.25910    0    0    0
     180       60        2  0.52000000   11.30525   11.60944   18.60469    0    0    0
     181       61        1 -1.04000000   12.92319   14.62441   12.07509    0    0    0
     182       61        2  0.52000000   12.95857   15.35057   12.69741    0    0    0
     183       61        2  0.52000000   13.11824   15.02501   11.22750    0    0    0
     184       62        1 -1.04000000   10.12559   19.74757    4.27039    0    0    0
     185       62        2  0.52000000   10.58570   20.04014    3.48391    0    0    0
     186       62        2  0.52000000    9.28872   20.21230    4.24571    0    0    0
     187       63        1 -1.04000000   14.13708   10.24781    7.26908    0    0    0
     188       63        2  0.52000000   13.22866   10.12651    6.99355    0    0    0
     189       63        2  0.52000000   14.63425    9.62568    6.73737    0    0    0
     190       64        1 -1.04000000    5.23122    8.01986    2.68576    0    0    0
     191       64        2  0.52000000    5.43195    8.29873    3.57895    0    0    0
     192       64        2  0.52000000    4.33683    7.68141    2.73529    0    0    0
     193       65        1 -1.04000000    5.61155   12.96212    3.98335    0    0    0
     194       65        2  0.52000000    6.18714   12.77228    4.72397    0    0    0
     195       65        2  0.52000000    6.20130   13.26560    3.29268    0    0    0
     196       66        1 -1.04000000    2.86962    7.73831   17.74092    0    0    0
     197       66        2  0.52000000    3.69025    7.71651   18.23280    0    0    0
     198       66        2  0.52000000    2.44013    8.54518   18.02628    0    0    0
     199       67        1 -1.04000000   17.97942    5.33527    6.80058    0    0    0
     200       67        2  0.52000000   17.29460    4.92494    7.32829    0    0    0
     201       67        2  0.52000000   18.72598    4.73979    6.87113    0    0    0
     202       68        1 -1.04000000   19.21163   19.05383   16.32391    0    0    0
     203       68        2  0.52000000   19.43991   19.29995   15.42771    0    0    0
     204       68        2  0.52000000   18.34846   18.64622   16.24838    0    0    0
     205       69        1 -1.04000000   11.72232    8.85523   -0.23354    0    0    0
     206       69        2  0.52000000   11.74865    8.84160    0.72300    0    0    0
     207       69        2  0.52000000   12.52903    9.30318   -0.48947    0    0    0
     208       70        1 -1.04000000    4.75355    8.88472   17.28031    0    0    0
     209       70        2  0.52000000    4.93243    8.45419   16.44455    0    0    0
     210       70        2  0.52000000    5.31402    9.66110   17.27514    0    0    0
     211       71        1 -1.04000000   12.29985   18.11860    9.22051    0    0    0
     212       71        2  0.52000000   12.22138   18.16013    8.26764    0    0    0
     213       71        2  0.52000000   11.47877   17.72128    9.51185    0    0    0
     214       72        1 -1.04000000    5.99548   15.67180    7.78819    0    0    0
     215       72        2  0.52000000    5.94515   15.75497    8.74024    0    0    0
     216       72        2  0.52000000    6.05937   16.57324    7.47157    0    0    0
     217       73        1 -1.04000000    9.81808    3.73108    4.21723    0    0    0
     218       73        2  0.52000000    9.72942    4.68261    4.26803    0    0    0
     219       73        2  0.52000000   10.45250    3.58632    3.51474    0    0    0
     220       74        1 -1.04000000    3.92756   14.24144   17.70157    0    0    0
     221       74        2  0.52000000    4.08480   14.47260   18.61682    0    0    0
     222       74        2  0.52000000    3.98764   13.28597   17.68162    0    0    0
     223       75        1 -1.04000000    1.26860    1.02111   11.28286    0    0    0
     224       75        2  0.52000000    1.41455    0.99898   10.33732    0    0    0
     225       75        2  0.52000000    0.31685    0.97991   11.37982    0    0    0
     226       76        1 -1.04000000   11.72604    3.09986   17.74005    0    0    0
     227       76        2  0.52000000   11.62161    2.55764   18.52167    0    0    0
     228       76        2  0.52000000   12.65235    3.34250   17.73828    0    0    0
     229       77        1 -1.04000000   14.65276   14.82196    8.01813    0    0    0
     230       77        2  0.52000000   15.42356   14.55251    7.51900    0    0    0
     231       77        2  0.52000000   14.92368   15.62553    8.46287    0    0    0
     232       78        1 -1.04000000   17.06697   18.74630   17.71060    0    0    0
     233       78        2  0.52000000   17.20171   18.61332   18.64869    0    0    0
     234       78        2  0.52000000   16.73132   19.64038   17.64071    0    0    0
     235       79        1 -1.04000000    4.28746    2.86166   19.77455    0    0    0
     236       79        2  0.52000000    3.61566    3.50154   19.53984    0    0    0
     237       79        2  0.52000000    4.09688    2.63681   20.68562    0    0    0
     238       80        1 -1.04000000    3.85432   10.92873    4.35538    0    0    0
     239       80        2  0.52000000    3.68392   10.44812    3.54555    0    0    0
     240       80        2  0.52000000    4.46177   11.62315    4.09906    0    0    0
     241       81        1 -1.04000000   15.87706   17.26444   16.74008    0    0    0
     242       81        2  0.52000000   15.84751   16.31093   16.66395    0    0    0
     243       81        2  0.52000000   16.27543   17.42464   17.59598    0    0    0
     244       82        1 -1.04000000   12.33264    2.79863   14.03746    0    0    0
     245       82        2  0.52000000   12.16610    3.55473   13.47494    0    0    0
     246       82        2  0.52000000   11.50126    2.64664   14.48760    0    0    0
     247       83        1 -1.04000000    2.95236    1.69372    9.76225    0    0    0
     248       83        2  0.52000000    3.29596    1.69372   10.65544    0    0    0
     249       83        2  0.52000000    2.75168    2.61256    9.58231    0    0    0
     250       84        1 -1.04000000    4.28737   10.15368    6.78459    0    0    0
     251       84        2  0.52000000    4.23646    9.26978    7.14787    0    0    0
     252       84        2  0.52000000    3.47617   10.57654    7.06754    0    0    0
     253       85        1 -1.04000000    2.33365   11.97029   19.20099    0    0    0
     254       85        2  0.52000000    2.18096   11.74583   18.28330    0    0    0
     255       85        2  0.52000000    1.48539   12.28388   19.51571    0    0    0
     256       86        1 -1.04000000   13.74983   17.88601    8.27753    0    0    0
     257       86        2  0.52000000   13.58627   17.96351    7.33781    0    0    0
     258       86        2  0.52000000   14.66390   18.15048    8.38466    0    0    0
     259       87        1 -1.04000000   10.68798   17.93839    5.77317    0    0    0
     260       87        2  0.52000000   10.73007   17.91845    6.72904    0    0    0
     261       87        2  0.52000000   11.58195   18.14316    5.49780    0    0    0
     262       88        1 -1.04000000    2.90998   17.32537   15.80345    0    0    0
     263       88        2  0.52000000    2.85786   17.17836   16.74766    0    0    0
     264       88        2  0.52000000    3.23216   16.49627   15.44889    0    0    0
     265       89        1 -1.04000000    7.03955   16.25017    2.70259    0    0    0
     266       89        2  0.52000000    7.28431   16.38529    3.61784    0    0    0
     267       89        2  0.52000000    6.67614   15.36454    2.67957    0    0    0
     268       90        1 -1.04000000   12.22417    4.78946    8.24088    0    0    0
     269       90        2  0.52000000   12.14011    4.70042    7.29175    0    0    0
     270       90        2  0.52000000   11.63572    5.51012    8.46738    0    0    0
     271       91        1 -1.04000000   15.88468    4.92482   10.63441    0    0    0
     272       91        2  0.52000000   15.59386    4.49729   11.43970    0    0    0
     273       91        2  0.52000000   16.52146    5.57789   10.92588    0    0    0
     274       92        1 -1.04000000    1.08702    5.35192    1.14554    0    0    0
     275       92        2  0.52000000    1.53934    4.52391    1.30570    0    0    0
     276       92        2  0.52000000    0.37364    5.12417    0.54876    0    0    0
     277       93        1 -1.04000000   19.69537   10.77133    2.08667    0    0    0
     278       93        2  0.52000000   20.51000   10.87277    2.57855    0    0    0
     279       93        2  0.52000000   19.79463   11.35590    1.33478    0    0    0
     280       94        1 -1.04000000    6.21572   18.82793   12.27651    0    0    0
     281       94        2  0.52000000    6.37896   18.84679   11.33373    0    0    0
     282       94        2  0.52000000    5.40532   19.32528   12.38976    0    0    0
     283       95        1 -1.04000000   17.20810    0.86081    4.70013    0    0    0
     284       95        2  0.52000000   17.37983    0.74729    5.63473    0    0    0
     285       95        2  0.52000000   16.41208    1.39190    4.66515    0    0    0
     286       96        1 -1.04000000    3.75809    2.03219    5.69497    0    0    0
     287       96        2  0.52000000    3.66912    2.43610    6.55798    0    0    0
     288       96        2  0.52000000    4.57279    1.53171    5.74705    0    0    0
     289       97        1 -1.04000000   19.22347   16.79000    7.24201    0    0    0
     290       97        2  0.52000000   19.10960   16.67151    6.29922    0    0    0
     291       97        2  0.52000000   18.66694   17.53848    7.45877    0    0    0
     292       98        1 -1.04000000    0.76229   12.19053   -0.24453    0    0    0
     293       98        2  0.52000000    1.00256   12.43616    0.64866    0    0    0
     294       98        2  0.52000000    1.23516   11.37331   -0.40413    0    0    0
     295       99        1 -1.04000000   14.07363   14.16173   14.34789    0    0    0
     296       99        2  0.52000000   14.68784   13.70710   13.77177    0    0    0
     297       99        2  0.52000000   13.23853   14.13117   13.88034    0    0    0
     298      100        1 -1.04000000    7.27291    6.97749   14.72140    0    0    0
     299      100        2  0.52000000    7.18773    6.43191   15.50303    0    0    0
     300      100        2  0.52000000    6.53936    7.59060   14.77557    0    0    0
     301      101        1 -1.04000000    2.90175   12.62901   16.07293    0    0    0
     302      101        2  0.52000000    2.31637   13.37073   15.92113    0    0    0
     303      101        2  0.52000000    3.78188   13.00026   16.00594    0    0    0
     304      102        1 -1.04000000    4.16535    9.26832   12.76920    0    0    0
     305      102        2  0.52000000    3.89431    8.38102   12.53450    0    0    0
     306      102        2  0.52000000    3.94033    9.35067   13.69630    0    0    0
     307      103        1 -1.04000000   14.15391    9.93212   20.35257    0    0    0
     308      103        2  0.52000000   13.24549    9.81082   20.07705    0    0    0
     309      103        2  0.52000000   14.60060   10.25705   19.57038    0    0    0
     310      104        1 -1.04000000   16.89924   15.32984   12.81655    0    0    0
     311      104        2  0.52000000   16.32404   14.70967   13.26418    0    0    0
     312      104        2  0.52000000   17.77671   14.96049   12.91927    0    0    0
     313      105        1 -1.04000000    3.63355   13.12945    3.96054    0    0    0
     314      105        2  0.52000000    4.01709   12.67735    4.71176    0    0    0
     315      105        2  0.52000000    4.34936   13.19320    3.32770    0    0    0
     316      106        1 -1.04000000    2.03706   14.69744   13.24431    0    0    0
     317      106        2  0.52000000    2.05226   14.68270   12.28754    0    0    0
     318      106        2  0.52000000    1.91068   15.61986   13.46815    0    0    0
     319      107        1 -1.04000000   16.02093    7.70747   18.74195    0    0    0
     320      107        2  0.52000000   16.18973    7.67107   19.68324    0    0    0
     321      107        2  0.52000000   15.78934    8.62145   18.57482    0    0    0
     322      108        1 -1.04000000    1.79143    8.22651   10.75960    0    0    0
     323      108        2  0.52000000    1.79732    8.23777   11.71651    0    0    0
     324      108        2  0.52000000    2.41125    7.53572   10.52389    0    0    0
     325      109        1 -1.04000000   18.01971    6.61642    1.07126    0    0    0
     326      109        2  0.52000000   18.48926    7.31998    1.51889    0    0    0
     327      109        2  0.52000000   17.49103    7.06360    0.40985    0    0    0
     328      110        1 -1.04000000    3.06615   19.20289    3.67280    0    0    0
     329      110        2  0.52000000    2.41054   18.52065    3.81623    0    0    0
     330      110        2  0.52000000    3.52330   19.27646    4.51097    0    0    0
     331      111        1 -1.04000000   18.68132    9.87689    8.81055    0    0    0
     332      111        2  0.52000000   19.11630   10.72591    8.73442    0    0    0
     333      111        2  0.52000000   19.20237    9.39720    9.45502    0    0    0
     334      112        1 -1.04000000    8.09275   11.68242   14.79230    0    0    0
     335      112        2  0.52000000    7.92976   11.73940   15.73359    0    0    0
     336      112        2  0.52000000    7.97749   12.57818   14.47411    0    0    0
     337      113        1 -1.04000000    7.73657   19.28846   14.00109    0    0    0
     338      113        2  0.52000000    8.59009   19.27335   14.43368    0    0    0