Created by /global/cfs/cdirs/m5056/rsb/codes/ATLAS-toolkit/scripts/createLammpsInput.pl on Thu Apr  9 14:47:53 2026

         816 atoms
         524 bonds
         252 angles

           6 atom types
           2 bond types
           1 angle types

		   0.000000  20.248900 xlo xhi
		   0.000000  20.248900 ylo yhi
		   0.000000  20.248900 zlo zhi

Masses

    1 1.5999E+01 # OW     
    2 1.0080E+00 # HW     
    3 6.9410E+00 # Li     
    4 3.9948E+01 # K_     
    5 1.5999E+01 # O_3    
    6 1.0080E+00 # H_     

Atoms

       1        1        1 -1.04000000    7.65815    4.98268    3.81174    0    0    0
       2        1        2  0.52000000    8.07948    5.75389    4.19064    0    0    0
       3        1        2  0.52000000    8.26237    4.26344    3.99762    0    0    0
       4        2        1 -1.04000000   13.34985   14.06455    2.83862    0    0    0
       5        2        2  0.52000000   12.82801   14.66875    3.36634    0    0    0
       6        2        2  0.52000000   12.82215   13.26670    2.79504    0    0    0
       7        3        1 -1.04000000   11.27951    1.08178   18.73963    0    0    0
       8        3        2  0.52000000   11.07269    1.55568   19.54492    0    0    0
       9        3        2  0.52000000   10.64780    0.36254   18.71544    0    0    0
      10        4        1 -1.04000000    2.98195    8.98188    0.38980    0    0    0
      11        4        2  0.52000000    3.51126    9.57324   -0.14496    0    0    0
      12        4        2  0.52000000    2.50679    8.44488   -0.24485    0    0    0
      13        5        1 -1.04000000    4.29166    6.91865   18.75318    0    0    0
      14        5        2  0.52000000    4.20762    6.65200   19.66843    0    0    0
      15        5        2  0.52000000    3.50073    7.42935   18.57839    0    0    0
      16        6        1 -1.04000000   17.70718    3.80573    2.17065    0    0    0
      17        6        2  0.52000000   18.63667    3.78104    2.39713    0    0    0
      18        6        2  0.52000000   17.65615    4.41323    1.43222    0    0    0
      19        7        1 -1.04000000    7.98662   10.12474   13.63005    0    0    0
      20        7        2  0.52000000    8.61573   10.36996   14.30824    0    0    0
      21        7        2  0.52000000    7.39765    9.50530   14.06171    0    0    0
      22        8        1 -1.04000000    7.80931    9.33531    2.93827    0    0    0
      23        8        2  0.52000000    8.74156    9.16003    2.81161    0    0    0
      24        8        2  0.52000000    7.44913    8.50467    3.25011    0    0    0
      25        9        1 -1.04000000   18.16803    3.66244   17.89792    0    0    0
      26        9        2  0.52000000   17.28644    3.79608   18.24547    0    0    0
      27        9        2  0.52000000   18.54553    4.54148   17.85661    0    0    0
      28       10        1 -1.04000000   19.26260    8.19846   16.78963    0    0    0
      29       10        2  0.52000000   18.35744    7.99489   16.55492    0    0    0
      30       10        2  0.52000000   19.37996    7.80665   17.65545    0    0    0
      31       11        1 -1.04000000   11.12926   12.12666   16.34620    0    0    0
      32       11        2  0.52000000   11.64900   11.88601   15.57951    0    0    0
      33       11        2  0.52000000   10.22174   11.98733   16.07430    0    0    0
      34       12        1 -1.04000000   14.75851    9.97409    5.30596    0    0    0
      35       12        2  0.52000000   14.53495    9.91754    4.37716    0    0    0
      36       12        2  0.52000000   15.70654   10.10837    5.31688    0    0    0
      37       13        1 -1.04000000   14.97936   14.13854   13.63533    0    0    0
      38       13        2  0.52000000   14.25851   13.84276   14.19098    0    0    0
      39       13        2  0.52000000   15.76213   14.01870   14.17369    0    0    0
      40       14        1 -1.04000000   15.34132    4.14349    6.12455    0    0    0
      41       14        2  0.52000000   15.17775    3.29427    5.71478    0    0    0
      42       14        2  0.52000000   14.48093    4.56224    6.16067    0    0    0
      43       15        1 -1.04000000   11.02364    1.03659   16.61179    0    0    0
      44       15        2  0.52000000   11.72236    0.79926   17.22115    0    0    0
      45       15        2  0.52000000   10.25400    1.16415   17.16705    0    0    0
      46       16        1 -1.04000000   15.27018    7.72221   18.95065    0    0    0
      47       16        2  0.52000000   14.56019    7.74107   19.59206    0    0    0
      48       16        2  0.52000000   15.16962    8.53672   18.45730    0    0    0
      49       17        1 -1.04000000    1.76908   11.68801   12.04407    0    0    0
      50       17        2  0.52000000    1.66516   12.55375   12.43846    0    0    0
      51       17        2  0.52000000    2.56576   11.75824   11.51747    0    0    0
      52       18        1 -1.04000000   18.11914   17.34113   17.14846    0    0    0
      53       18        2  0.52000000   17.97296   17.12210   16.22840    0    0    0
      54       18        2  0.52000000   17.90791   16.53677   17.62314    0    0    0
      55       19        1 -1.04000000   19.02783   19.30523   13.75780    0    0    0
      56       19        2  0.52000000   19.03663   19.31439   14.71472    0    0    0
      57       19        2  0.52000000   18.93555   18.38037   13.52748    0    0    0
      58       20        1 -1.04000000   13.19256   14.20736    0.73070    0    0    0
      59       20        2  0.52000000   13.07622   14.41592    1.65742    0    0    0
      60       20        2  0.52000000   12.73122   13.37672    0.61188    0    0    0
      61       21        1 -1.04000000    8.76926    9.68524    1.98305    0    0    0
      62       21        2  0.52000000    9.08788   10.13624    2.76467    0    0    0
      63       21        2  0.52000000    9.14286   10.17852    1.25228    0    0    0
      64       22        1 -1.04000000    3.77415   14.80580   10.25274    0    0    0
      65       22        2  0.52000000    3.76422   14.75168    9.29733    0    0    0
      66       22        2  0.52000000    4.46164   15.44252   10.44993    0    0    0
      67       23        1 -1.04000000    8.18665    6.83553   13.69881    0    0    0
      68       23        2  0.52000000    7.96598    7.75920   13.81707    0    0    0
      69       23        2  0.52000000    7.84737    6.40527   14.48411    0    0    0
      70       24        1 -1.04000000    8.98325    7.69940   11.24892    0    0    0
      71       24        2  0.52000000    9.02748    7.66666   10.29350    0    0    0
      72       24        2  0.52000000    8.98928    8.63394   11.45757    0    0    0
      73       25        1 -1.04000000   12.70642    6.74281   17.01639    0    0    0
      74       25        2  0.52000000   13.36972    6.83138   16.33226    0    0    0
      75       25        2  0.52000000   12.92386    7.42581   17.65135    0    0    0
      76       26        1 -1.04000000    3.12804    0.63708   13.06707    0    0    0
      77       26        2  0.52000000    3.59769    1.35447   12.64206    0    0    0
      78       26        2  0.52000000    2.27427    1.00845   13.29087    0    0    0
      79       27        1 -1.04000000   12.32583   18.99396   18.21541    0    0    0
      80       27        2  0.52000000   11.86258   19.75940   17.87576    0    0    0
      81       27        2  0.52000000   11.81159   18.24664   17.90884    0    0    0
      82       28        1 -1.04000000   19.11565    2.18032    8.32667    0    0    0
      83       28        2  0.52000000   18.65828    1.34314    8.25054    0    0    0
      84       28        2  0.52000000   19.22607    2.47654    7.42279    0    0    0
      85       29        1 -1.04000000    3.16851    1.26060   10.23726    0    0    0
      86       29        2  0.52000000    3.14834    1.26706    9.28050    0    0    0
      87       29        2  0.52000000    2.68316    0.47234   10.48224    0    0    0
      88       30        1 -1.04000000   11.82629    3.28318    6.20551    0    0    0
      89       30        2  0.52000000   12.02377    3.27619    5.26914    0    0    0
      90       30        2  0.52000000   12.14994    2.44063    6.52535    0    0    0
      91       31        1 -1.04000000    5.04892   10.61260    1.98848    0    0    0
      92       31        2  0.52000000    4.45991   11.14453    1.45372    0    0    0
      93       31        2  0.52000000    5.49116   11.24287    2.55780    0    0    0
      94       32        1 -1.04000000    4.37225    1.10038    4.06292    0    0    0
      95       32        2  0.52000000    3.64568    1.12611    4.68524    0    0    0
      96       32        2  0.52000000    3.98207    0.77351    3.25184    0    0    0
      97       33        1 -1.04000000    8.28802   16.77858   16.85640    0    0    0
      98       33        2  0.52000000    7.34760   16.68675   16.70460    0    0    0
      99       33        2  0.52000000    8.36438   17.53468   17.43899    0    0    0
     100       34        1 -1.04000000    7.26179    3.10513    2.72978    0    0    0
     101       34        2  0.52000000    6.34760    3.37997    2.79749    0    0    0
     102       34        2  0.52000000    7.39061    2.51490    3.47272    0    0    0
     103       35        1 -1.04000000    7.85575   11.92935    7.64391    0    0    0
     104       35        2  0.52000000    7.38232   11.94192    8.47551    0    0    0
     105       35        2  0.52000000    8.76193   12.12873    7.88059    0    0    0
     106       36        1 -1.04000000   -0.10609    7.21584   15.69217    0    0    0
     107       36        2  0.52000000   -0.59003    7.07965   16.50649    0    0    0
     108       36        2  0.52000000    0.69612    6.70451   15.80134    0    0    0
     109       37        1 -1.04000000    7.03459    4.79502    5.66926    0    0    0
     110       37        2  0.52000000    6.96662    4.45820    6.56245    0    0    0
     111       37        2  0.52000000    6.99879    5.74678    5.76829    0    0    0
     112       38        1 -1.04000000    7.21109   -0.21647   18.75264    0    0    0
     113       38        2  0.52000000    7.52865    0.43138   19.38138    0    0    0
     114       38        2  0.52000000    6.26026   -0.21491   18.86598    0    0    0
     115       39        1 -1.04000000    7.10527    2.62643   18.04433    0    0    0
     116       39        2  0.52000000    7.66357    3.40204   18.09513    0    0    0
     117       39        2  0.52000000    6.23117    2.97153   17.86054    0    0    0
     118       40        1 -1.04000000    1.34255   15.83516    6.08991    0    0    0
     119       40        2  0.52000000    0.83149   16.44849    6.61763    0    0    0
     120       40        2  0.52000000    0.82595   15.71635    5.29246    0    0    0
     121       41        1 -1.04000000   16.95891    8.88250   13.37028    0    0    0
     122       41        2  0.52000000   17.69762    9.35222   12.98361    0    0    0
     123       41        2  0.52000000   16.34347    8.76529   12.64611    0    0    0
     124       42        1 -1.04000000   16.29487    4.22375   13.12485    0    0    0
     125       42        2  0.52000000   15.35671    4.40014   13.19253    0    0    0
     126       42        2  0.52000000   16.34842    3.37611   12.68262    0    0    0
     127       43        1 -1.04000000   18.69444   15.85960   11.19879    0    0    0
     128       43        2  0.52000000   19.08870   15.50354   10.40279    0    0    0
     129       43        2  0.52000000   19.21686   16.63686   11.39842    0    0    0
     130       44        1 -1.04000000    8.94098    1.15430    3.35399    0    0    0
     131       44        2  0.52000000    8.28694    0.96397    2.68179    0    0    0
     132       44        2  0.52000000    9.77207    0.88173    2.96422    0    0    0
     133       45        1 -1.04000000   14.10379   12.71295    7.24379    0    0    0
     134       45        2  0.52000000   14.62838   13.10844    6.54791    0    0    0
     135       45        2  0.52000000   13.26783   13.17860    7.20830    0    0    0
     136       46        1 -1.04000000   12.69812    6.78664    0.12628    0    0    0
     137       46        2  0.52000000   13.49659    7.01136    0.60355    0    0    0
     138       46        2  0.52000000   12.80529    7.20200   -0.72983    0    0    0
     139       47        1 -1.04000000   15.16084   11.72913   10.76900    0    0    0
     140       47        2  0.52000000   15.55846   12.54031   11.08480    0    0    0
     141       47        2  0.52000000   14.28070   11.73056   11.14620    0    0    0
     142       48        1 -1.04000000    9.74683   18.28770    7.07571    0    0    0
     143       48        2  0.52000000   10.64387   18.36729    6.75193    0    0    0
     144       48        2  0.52000000    9.60930   17.34501    7.17236    0    0    0
     145       49        1 -1.04000000    6.72765    9.85049   19.23680    0    0    0
     146       49        2  0.52000000    7.24602    9.39062   18.57676    0    0    0
     147       49        2  0.52000000    7.02633   10.75889   19.18644    0    0    0
     148       50        1 -1.04000000    4.99241   17.32584   13.21534    0    0    0
     149       50        2  0.52000000    5.47807   17.17041   12.40551    0    0    0
     150       50        2  0.52000000    4.52952   16.50375   13.37914    0    0    0
     151       51        1 -1.04000000   -0.17723   15.12520    4.32484    0    0    0
     152       51        2  0.52000000   -0.57481   14.94536    3.47311    0    0    0
     153       51        2  0.52000000    0.75204   14.92944    4.20205    0    0    0
     154       52        1 -1.04000000    5.35381   19.93001    1.15006    0    0    0
     155       52        2  0.52000000    5.14363   20.27730    0.28342    0    0    0
     156       52        2  0.52000000    4.50255   19.79269    1.56651    0    0    0
     157       53        1 -1.04000000   17.72862   19.16093   15.76965    0    0    0
     158       53        2  0.52000000   17.64548   18.91967   16.69201    0    0    0
     159       53        2  0.52000000   18.62589   18.91940   15.53834    0    0    0
     160       54        1 -1.04000000   10.21927   16.68107    0.05298    0    0    0
     161       54        2  0.52000000   10.39013   17.56816    0.36879    0    0    0
     162       54        2  0.52000000    9.39061   16.75077   -0.42177    0    0    0
     163       55        1 -1.04000000    4.81210    8.91069   17.33064    0    0    0
     164       55        2  0.52000000    5.61722    8.52045   16.99099    0    0    0
     165       55        2  0.52000000    4.57068    9.56887   16.67838    0    0    0
     166       56        1 -1.04000000   11.68162    1.95280   12.22137    0    0    0
     167       56        2  0.52000000   11.72025    2.16340   11.28863    0    0    0
     168       56        2  0.52000000   12.59814    1.88380   12.49000    0    0    0
     169       57        1 -1.04000000    0.06464   20.37011   16.10695    0    0    0
     170       57        2  0.52000000    0.13088   19.58401   16.64872    0    0    0
     171       57        2  0.52000000   -0.19552   20.04587   15.24433    0    0    0
     172       58        1 -1.04000000    8.91856   17.82138   12.33773    0    0    0
     173       58        2  0.52000000    8.34204   18.38032   11.81711    0    0    0
     174       58        2  0.52000000    9.73940   17.79830   11.84516    0    0    0
     175       59        1 -1.04000000   18.88452    8.27673   -0.25037    0    0    0
     176       59        2  0.52000000   18.77134    8.26264    0.69981    0    0    0
     177       59        2  0.52000000   19.34415    7.46062   -0.44945    0    0    0
     178       60        1 -1.04000000   19.17552   16.79007    4.27879    0    0    0
     179       60        2  0.52000000   19.17334   16.62575    3.33600    0    0    0
     180       60        2  0.52000000   18.65114   17.58419    4.38521    0    0    0
     181       61        1 -1.04000000   -0.16120    2.82029    8.69288    0    0    0
     182       61        2  0.52000000    0.48795    2.46937    9.30224    0    0    0
     183       61        2  0.52000000   -0.32675    3.71033    9.00488    0    0    0
     184       62        1 -1.04000000   13.38911   17.01173    2.03251    0    0    0
     185       62        2  0.52000000   12.83710   16.24486    1.88071    0    0    0
     186       62        2  0.52000000   12.77379   17.74341    2.08678    0    0    0
     187       63        1 -1.04000000   17.89157   11.63925    2.89653    0    0    0
     188       63        2  0.52000000   18.50503   11.89097    3.58657    0    0    0
     189       63        2  0.52000000   17.60340   12.46978    2.51690    0    0    0
     190       64        1 -1.04000000   -0.36335    9.02379   15.14146    0    0    0
     191       64        2  0.52000000   -0.09657    8.84744   14.23947    0    0    0
     192       64        2  0.52000000    0.45993    9.12877   15.61907    0    0    0
     193       65        1 -1.04000000    9.30170    9.79928   17.85408    0    0    0
     194       65        2  0.52000000    8.76558    9.57930   18.61568    0    0    0
     195       65        2  0.52000000    8.93272   10.62142   17.53024    0    0    0
     196       66        1 -1.04000000    0.62380   12.10081    7.03018    0    0    0
     197       66        2  0.52000000    1.30635   12.17967    7.69633    0    0    0
     198       66        2  0.52000000    1.06986   11.71952    6.27349    0    0    0
     199       67        1 -1.04000000   12.31739   14.89170   12.79965    0    0    0
     200       67        2  0.52000000   11.80139   14.36418   13.40901    0    0    0
     201       67        2  0.52000000   11.88122   15.74412   12.79133    0    0    0
     202       68        1 -1.04000000   12.34382    3.90643    0.16011    0    0    0
     203       68        2  0.52000000   12.17746    4.52914   -0.54729    0    0    0
     204       68        2  0.52000000   11.47872    3.56443    0.38718    0    0    0
     205       69        1 -1.04000000    2.21556   17.84745   17.71214    0    0    0
     206       69        2  0.52000000    1.60948   17.39051   18.29500    0    0    0
     207       69        2  0.52000000    2.17495   18.76204   17.99286    0    0    0
     208       70        1 -1.04000000   19.87576    4.64780   10.88546    0    0    0
     209       70        2  0.52000000   20.65761    5.11627   10.59376    0    0    0
     210       70        2  0.52000000   19.46663    5.23594   11.52078    0    0    0
     211       71        1 -1.04000000   12.96196    6.74459   14.29312    0    0    0
     212       71        2  0.52000000   12.93246    6.56601   13.35339    0    0    0
     213       71        2  0.52000000   13.10557    7.68940   14.35348    0    0    0
     214       72        1 -1.04000000    8.07802   -0.34036   11.82487    0    0    0
     215       72        2  0.52000000    8.19837   -0.11535   12.74723    0    0    0
     216       72        2  0.52000000    7.72361    0.45571   11.42790    0    0    0
     217       73        1 -1.04000000   14.76901    6.25783    4.81898    0    0    0
     218       73        2  0.52000000   15.30312    6.39799    5.60060    0    0    0
     219       73        2  0.52000000   14.92787    5.34417    4.58041    0    0    0
     220       74        1 -1.04000000   -0.13220    0.27517   11.24373    0    0    0
     221       74        2  0.52000000    0.73097    0.22162   10.83396    0    0    0
     222       74        2  0.52000000   -0.59877   -0.49679   10.92230    0    0    0
     223       75        1 -1.04000000    4.77187    4.90639    8.30298    0    0    0
     224       75        2  0.52000000    4.59110    5.53800    7.60710    0    0    0
     225       75        2  0.52000000    5.63703    4.55562    8.08992    0    0    0
     226       76        1 -1.04000000    0.29439   19.25144    2.94789    0    0    0
     227       76        2  0.52000000   -0.59245   19.30646    2.59246    0    0    0
     228       76        2  0.52000000    0.29806   18.44210    3.45965    0    0    0
     229       77        1 -1.04000000    0.02400    2.15850    7.35624    0    0    0
     230       77        2  0.52000000    0.50741    1.40564    7.01659    0    0    0
     231       77        2  0.52000000   -0.53140    2.43587    6.62718    0    0    0
     232       78        1 -1.04000000    3.73596    9.92091   18.72318    0    0    0
     233       78        2  0.52000000    3.63217    9.84122   19.67119    0    0    0
     234       78        2  0.52000000    4.63187   10.23787   18.60563    0    0    0
     235       79        1 -1.04000000    5.00598   10.34728    6.17878    0    0    0
     236       79        2  0.52000000    5.48526    9.55536    6.42169    0    0    0
     237       79        2  0.52000000    4.50875   10.09736    5.39953    0    0    0
     238       80        1 -1.04000000    3.96339   16.14510    9.36084    0    0    0
     239       80        2  0.52000000    3.26597   15.85894    8.77129    0    0    0
     240       80        2  0.52000000    4.77064   15.99596    8.86787    0    0    0
     241       81        1 -1.04000000    3.81660    7.26766    1.21754    0    0    0
     242       81        2  0.52000000    3.79554    6.31629    1.31897    0    0    0
     243       81        2  0.52000000    4.38786    7.41605    0.46350    0    0    0
     244       82        1 -1.04000000    4.03798   13.91875    3.38021    0    0    0
     245       82        2  0.52000000    4.48898   13.50415    2.64499    0    0    0
     246       82        2  0.52000000    3.47304   14.57710    2.97480    0    0    0
     247       83        1 -1.04000000   10.13352   12.67372    7.83173    0    0    0
     248       83        2  0.52000000    9.97524   12.82991    8.76254    0    0    0
     249       83        2  0.52000000    9.89124   13.49637    7.40573    0    0    0
     250       84        1 -1.04000000    0.74739    4.09027   12.71603    0    0    0
     251       84        2  0.52000000    0.59140    4.09027   13.66023    0    0    0
     252       84        2  0.52000000    1.66121    3.81946   12.62374    0    0    0
     253       85        1 -1.04000000   13.78610   18.32599   12.02410    0    0    0
     254       85        2  0.52000000   13.84294   17.71601   11.28888    0    0    0
     255       85        2  0.52000000   14.37096   17.95800   12.68701    0    0    0
     256       86        1 -1.04000000   -0.33783    4.94622    3.18863    0    0    0
     257       86        2  0.52000000   -0.18316    5.46907    2.40215    0    0    0
     258       86        2  0.52000000    0.52099    4.58472    3.40923    0    0    0
     259       87        1 -1.04000000   17.96989   10.61644   14.06764    0    0    0
     260       87        2  0.52000000   17.28274   11.21525   13.77594    0    0    0
     261       87        2  0.52000000   18.74737   11.16831   14.15642    0    0    0
     262       88        1 -1.04000000    7.24649   15.97701    6.69782    0    0    0
     263       88        2  0.52000000    6.54336   16.61200    6.83287    0    0    0
     264       88        2  0.52000000    7.21015   15.41098    7.46932    0    0    0
     265       89        1 -1.04000000   15.84770   19.35769   16.96171    0    0    0
     266       89        2  0.52000000   16.09440   18.74880   16.26584    0    0    0
     267       89        2  0.52000000   16.05790   18.89351   17.77245    0    0    0
     268       90        1 -1.04000000   16.80581   11.74731   17.22592    0    0    0
     269       90        2  0.52000000   16.76958   11.82837   16.27305    0    0    0
     270       90        2  0.52000000   17.42461   12.42432   17.50102    0    0    0
     271       91        1 -1.04000000    4.31178    4.23013   10.95066    0    0    0
     272       91        2  0.52000000    4.29922    3.28403   11.09410    0    0    0
     273       91        2  0.52000000    3.38900    4.48584   10.95524    0    0    0
     274       92        1 -1.04000000   16.01518   18.32318    3.78108    0    0    0
     275       92        2  0.52000000   16.44553   18.16414    4.62094    0    0    0
     276       92        2  0.52000000   15.53928   17.51268    3.59798    0    0    0
     277       93        1 -1.04000000   19.10992    1.64066    3.10677    0    0    0
     278       93        2  0.52000000   19.52654    2.47192    3.33325    0    0    0
     279       93        2  0.52000000   18.36354    1.88742    2.55998    0    0    0
     280       94        1 -1.04000000    7.23611   12.95395   10.69221    0    0    0
     281       94        2  0.52000000    6.73598   13.73286   10.93512    0    0    0
     282       94        2  0.52000000    7.02791   12.31319   11.37266    0    0    0
     283       95        1 -1.04000000    0.75596    8.28284    9.88579    0    0    0
     284       95        2  0.52000000    1.59622    8.37994   10.33342    0    0    0
     285       95        2  0.52000000    0.64782    7.33722    9.78078    0    0    0
     286       96        1 -1.04000000    9.16857   18.16116    8.31339    0    0    0
     287       96        2  0.52000000    8.70185   18.60570    7.60600    0    0    0
     288       96        2  0.52000000    9.12958   17.23314    8.08061    0    0    0
     289       97        1 -1.04000000    9.68978   19.90754   14.21866    0    0    0
     290       97        2  0.52000000   10.09303   20.76845   14.10882    0    0    0
     291       97        2  0.52000000   10.21719   19.32402   13.67252    0    0    0
     292       98        1 -1.04000000    1.01687    0.38907    1.96929    0    0    0
     293       98        2  0.52000000    0.99600   -0.13469    2.76997    0    0    0
     294       98        2  0.52000000    0.98713   -0.25437    1.26075    0    0    0
     295       99        1 -1.04000000    6.07062   18.72259   10.73418    0    0    0
     296       99        2  0.52000000    5.93845   18.61147   11.67547    0    0    0
     297       99        2  0.52000000    5.99093   19.66593   10.59035    0    0    0
     298      100        1 -1.04000000   18.86052   -0.34341   11.87664    0    0    0
     299      100        2  0.52000000   19.29374   -0.15206   12.70824    0    0    0
     300      100        2  0.52000000   18.84574    0.49547   11.41512    0    0    0
     301      101        1 -1.04000000   14.23015   11.27688   18.15156    0    0    0
     302      101        2  0.52000000   14.08942   11.07389   17.22699    0    0    0
     303      101        2  0.52000000   13.68043   10.64923   18.62145    0    0    0
     304      102        1 -1.04000000   17.78021    2.27507   17.16921    0    0    0
     305      102        2  0.52000000   18.13170    2.27196   16.27910    0    0    0
     306      102        2  0.52000000   18.08809    1.45297   17.55169    0    0    0
     307      103        1 -1.04000000    4.31613   11.15932   15.83483    0    0    0
     308      103        2  0.52000000    4.04233   11.21584   16.75008    0    0    0
     309      103        2  0.52000000    3.64154   10.62484   15.41508    0    0    0
     310      104        1 -1.04000000    9.10250   11.37083    5.93232    0    0    0
     311      104        2  0.52000000    9.08423   10.91237    6.77216    0    0    0
     312      104        2  0.52000000    8.81327   10.71680    5.29552    0    0    0
     313      105        1 -1.04000000   10.93570   11.73993   18.28431    0    0    0
     314      105        2  0.52000000   10.37284   12.46625   18.01691    0    0    0
     315      105        2  0.52000000   11.69146   11.79381   17.69878    0    0    0
     316      106        1 -1.04000000    9.14385    2.72770   13.24033    0    0    0
     317      106        2  0.52000000    9.14659    2.72447   12.28334    0    0    0
     318      106        2  0.52000000    8.70957    3.54784   13.47632    0    0    0
     319      107        1 -1.04000000   13.98479    3.77299    7.68245    0    0    0
     320      107        2  0.52000000   14.44103    4.60810    7.78388    0    0    0
     321      107        2  0.52000000   13.57418    3.61890    8.53367    0    0    0
     322      108        1 -1.04000000   16.23276   14.05267    7.30927    0    0    0
     323      108        2  0.52000000   16.29773   14.46884    6.44996    0    0    0
     324      108        2  0.52000000   15.46951   13.47849    7.24077    0    0    0
     325      109        1 -1.04000000    9.65678    6.84157    7.90150    0    0    0
     326      109        2  0.52000000    9.81411    7.69921    8.29590    0    0    0
     327      109        2  0.52000000   10.52911    6.45923    7.80260    0    0    0
     328      110        1 -1.04000000    4.93886   18.75717   17.29983    0    0    0
     329      110        2  0.52000000    5.11305   18.52824   16.38709    0    0    0
     330      110        2  0.52000000    4.94808   19.71460   17.31308    0    0    0
     331      111        1 -1.04000000    9.89803    7.11385   11.64050    0    0    0
     332      111        2  0.52000000    9.32456    6.96336   12.39172    0    0    0
     333      111        2  0.52000000   10.77741    6.92279   11.96778    0    0    0
     334      112        1 -1.04000000    9.90548   12.62707   16.06777    0    0    0
     335      112        2  0.52000000   10.24557   13.00702   15.25794    0    0    0
     336      112        2  0.52000000    9.84895   13.36591   16.67429    0    0    0
     337      113        1 -1.04000000    9.03118    9.35156   15.83256    0    0    0
     338      113        2  0.52000000    8.41353    9.07875   16.51075    0    0    0