Created by /global/cfs/cdirs/m5056/rsb/codes/ATLAS-toolkit/scripts/createLammpsInput.pl on Thu Apr  9 14:47:57 2026

         855 atoms
         550 bonds
         265 angles

           6 atom types
           2 bond types
           1 angle types

		   0.000000  20.249640 xlo xhi
		   0.000000  20.249640 ylo yhi
		   0.000000  20.249640 zlo zhi

Masses

    1 1.5999E+01 # OW     
    2 1.0080E+00 # HW     
    3 6.9410E+00 # Li     
    4 3.9948E+01 # K_     
    5 1.5999E+01 # O_3    
    6 1.0080E+00 # H_     

Atoms

       1        1        1 -1.04000000    3.33533   13.10637    0.16983    0    0    0
       2        1        2  0.52000000    2.46908   13.04496    0.57193    0    0    0
       3        1        2  0.52000000    3.19560   12.84867   -0.74176    0    0    0
       4        2        1 -1.04000000    5.27688    5.85245   12.76725    0    0    0
       5        2        2  0.52000000    4.90736    5.46105   13.55853    0    0    0
       6        2        2  0.52000000    4.81576    6.68650   12.67422    0    0    0
       7        3        1 -1.04000000   19.38579   16.03483    3.94943    0    0    0
       8        3        2  0.52000000   18.73165   15.77316    3.30176    0    0    0
       9        3        2  0.52000000   18.88257   16.19201    4.74880    0    0    0
      10        4        1 -1.04000000    6.04011    7.01934    5.38810    0    0    0
      11        4        2  0.52000000    5.94637    7.74582    4.77223    0    0    0
      12        4        2  0.52000000    6.01352    6.23484    4.83967    0    0    0
      13        5        1 -1.04000000   13.84000    4.64493   11.03040    0    0    0
      14        5        2  0.52000000   13.57196    5.36053   10.45429    0    0    0
      15        5        2  0.52000000   14.58804    4.99454   11.51531    0    0    0
      16        6        1 -1.04000000   12.08217   -0.12565    6.63936    0    0    0
      17        6        2  0.52000000   11.38786   -0.43233    7.22221    0    0    0
      18        6        2  0.52000000   12.52997    0.55798    7.13843    0    0    0
      19        7        1 -1.04000000    6.83951   15.97872    0.64448    0    0    0
      20        7        2  0.52000000    6.96120   16.75816    1.18625    0    0    0
      21        7        2  0.52000000    7.19929   15.26312    1.16927    0    0    0
      22        8        1 -1.04000000   16.17493    8.28289   18.79511    0    0    0
      23        8        2  0.52000000   15.53150    8.38042   19.49678    0    0    0
      24        8        2  0.52000000   16.29358    7.33669   18.70811    0    0    0
      25        9        1 -1.04000000   13.80720   10.31642   18.87627    0    0    0
      26        9        2  0.52000000   13.71644    9.86669   19.71612    0    0    0
      27        9        2  0.52000000   14.47636    9.81690   18.40761    0    0    0
      28       10        1 -1.04000000    2.32616    9.81907    9.88388    0    0    0
      29       10        2  0.52000000    1.80920   10.46232    9.39928    0    0    0
      30       10        2  0.52000000    1.86464    9.71860   10.71684    0    0    0
      31       11        1 -1.04000000   15.96231    4.21119    6.67353    0    0    0
      32       11        2  0.52000000   16.45402    3.39874    6.79179    0    0    0
      33       11        2  0.52000000   15.58366    4.39007    7.53467    0    0    0
      34       12        1 -1.04000000   11.20644    0.78416   16.74822    0    0    0
      35       12        2  0.52000000   11.21686    0.73877   17.70408    0    0    0
      36       12        2  0.52000000   10.57670    1.47708   16.54770    0    0    0
      37       13        1 -1.04000000    9.79496   12.67540   13.92792    0    0    0
      38       13        2  0.52000000    9.81283   13.48277   13.41442    0    0    0
      39       13        2  0.52000000   10.39221   12.84183   14.65766    0    0    0
      40       14        1 -1.04000000    5.31094   14.05028    5.23106    0    0    0
      41       14        2  0.52000000    5.28893   13.66812    4.35395    0    0    0
      42       14        2  0.52000000    4.40013   14.28160    5.41499    0    0    0
      43       15        1 -1.04000000    4.95349    3.38786    1.00001    0    0    0
      44       15        2  0.52000000    5.48632    2.86205    1.59621    0    0    0
      45       15        2  0.52000000    4.56019    2.75009    0.40378    0    0    0
      46       16        1 -1.04000000    7.73462    1.12050    8.73989    0    0    0
      47       16        2  0.52000000    7.69302    1.18924    9.69351    0    0    0
      48       16        2  0.52000000    8.57236    0.69026    8.56660    0    0    0
      49       17        1 -1.04000000    4.65530   12.12242   17.86289    0    0    0
      50       17        2  0.52000000    5.52643   12.32646   17.52324    0    0    0
      51       17        2  0.52000000    4.81827   11.55112   18.61388    0    0    0
      52       18        1 -1.04000000    6.06757    8.78369   10.31819    0    0    0
      53       18        2  0.52000000    6.59630    8.83532    9.52218    0    0    0
      54       18        2  0.52000000    5.33612    9.38099   10.15962    0    0    0
      55       19        1 -1.04000000   11.05144    6.17949   14.34313    0    0    0
      56       19        2  0.52000000   10.66035    6.53902   13.54712    0    0    0
      57       19        2  0.52000000   11.28821    5.28149   14.10975    0    0    0
      58       20        1 -1.04000000    7.29723    6.89227   10.77055    0    0    0
      59       20        2  0.52000000    7.25708    6.86869   11.72641    0    0    0
      60       20        2  0.52000000    6.44569    7.23904   10.50304    0    0    0
      61       21        1 -1.04000000   13.01094   14.36274    5.14456    0    0    0
      62       21        2  0.52000000   12.42356   14.01782    4.47236    0    0    0
      63       21        2  0.52000000   13.56550   13.61943    5.38307    0    0    0
      64       22        1 -1.04000000   16.91376    6.10485   14.36629    0    0    0
      65       22        2  0.52000000   17.62814    6.42797   13.81757    0    0    0
      66       22        2  0.52000000   16.45810    5.46718   13.81614    0    0    0
      67       23        1 -1.04000000   11.98512    6.19502    3.66185    0    0    0
      68       23        2  0.52000000   12.51242    6.40055    4.43357    0    0    0
      69       23        2  0.52000000   11.50246    5.40443    3.90458    0    0    0
      70       24        1 -1.04000000    8.79642    5.75989   12.76870    0    0    0
      71       24        2  0.52000000    8.60325    6.00464   13.67348    0    0    0
      72       24        2  0.52000000    9.60033    6.23547   12.55782    0    0    0
      73       25        1 -1.04000000   14.71398   10.05307   10.73927    0    0    0
      74       25        2  0.52000000   14.69255    9.51523   11.53054    0    0    0
      75       25        2  0.52000000   15.59347   10.43170   10.73019    0    0    0
      76       26        1 -1.04000000   13.99703    6.75661   15.30554    0    0    0
      77       26        2  0.52000000   13.39762    6.76722   14.55959    0    0    0
      78       26        2  0.52000000   14.60534    7.47617   15.13487    0    0    0
      79       27        1 -1.04000000   16.09928   18.64270   12.12280    0    0    0
      80       27        2  0.52000000   15.36402   18.88520   11.56028    0    0    0
      81       27        2  0.52000000   16.53670   19.47210   12.31693    0    0    0
      82       28        1 -1.04000000    0.22092   18.25954   16.80912    0    0    0
      83       28        2  0.52000000   -0.61742   17.88924   16.53360    0    0    0
      84       28        2  0.52000000    0.39649   17.85122   17.65728    0    0    0
      85       29        1 -1.04000000    2.03393   17.66232    8.19345    0    0    0
      86       29        2  0.52000000    2.26053   17.83953    7.28071    0    0    0
      87       29        2  0.52000000    1.70554   18.49815    8.52584    0    0    0
      88       30        1 -1.04000000    4.10126   17.03088    2.37602    0    0    0
      89       30        2  0.52000000    4.29945   16.31451    1.77322    0    0    0
      90       30        2  0.52000000    3.59928   17.65461    1.85075    0    0    0
      91       31        1 -1.04000000    5.76412    1.30256   17.07363    0    0    0
      92       31        2  0.52000000    5.95607    0.55768   17.64298    0    0    0
      93       31        2  0.52000000    6.27981    1.13976   16.28338    0    0    0
      94       32        1 -1.04000000   10.01987    1.29747    0.74758    0    0    0
      95       32        2  0.52000000   10.17429    1.31948    1.69178    0    0    0
      96       32        2  0.52000000    9.80584    0.38304    0.56064    0    0    0
      97       33        1 -1.04000000   18.29490    2.25534    0.02089    0    0    0
      98       33        2  0.52000000   17.44289    2.30820    0.45348    0    0    0
      99       33        2  0.52000000   18.26221    1.43645   -0.47437    0    0    0
     100       34        1 -1.04000000    9.91820    3.70512    1.75719    0    0    0
     101       34        2  0.52000000    9.91059    3.69494    2.71411    0    0    0
     102       34        2  0.52000000   10.17121    4.59994    1.52870    0    0    0
     103       35        1 -1.04000000    2.02355    4.35015   13.17159    0    0    0
     104       35        2  0.52000000    2.46672    4.05721   12.37558    0    0    0
     105       35        2  0.52000000    1.50973    3.59264   13.45284    0    0    0
     106       36        1 -1.04000000    7.83320    3.70746    7.80201    0    0    0
     107       36        2  0.52000000    7.95136    3.78113    8.74882    0    0    0
     108       36        2  0.52000000    8.21544    4.51141    7.44917    0    0    0
     109       37        1 -1.04000000   16.88431    9.02677   10.62784    0    0    0
     110       37        2  0.52000000   16.79364    9.68365   11.31788    0    0    0
     111       37        2  0.52000000   17.32206    8.28958   11.05428    0    0    0
     112       38        1 -1.04000000   12.76000   13.89027   14.71197    0    0    0
     113       38        2  0.52000000   12.94878   13.42432   15.52629    0    0    0
     114       38        2  0.52000000   13.29122   14.68541   14.76174    0    0    0
     115       39        1 -1.04000000    4.66426   13.17066   14.10371    0    0    0
     116       39        2  0.52000000    4.81109   12.55603   13.38501    0    0    0
     117       39        2  0.52000000    5.52465   13.27331   14.51128    0    0    0
     118       40        1 -1.04000000   12.13783    5.31185    8.19066    0    0    0
     119       40        2  0.52000000   12.40460    4.98588    7.33134    0    0    0
     120       40        2  0.52000000   11.45757    4.70227    8.47800    0    0    0
     121       41        1 -1.04000000   15.95590    0.67310   16.79073    0    0    0
     122       41        2  0.52000000   16.33614    0.76216   17.66442    0    0    0
     123       41        2  0.52000000   15.70796    1.56473   16.54486    0    0    0
     124       42        1 -1.04000000    8.16919   17.70401    1.80930    0    0    0
     125       42        2  0.52000000    7.95360   18.57235    1.46965    0    0    0
     126       42        2  0.52000000    7.87721   17.72364    2.72105    0    0    0
     127       43        1 -1.04000000   14.77243    8.04710   14.31400    0    0    0
     128       43        2  0.52000000   14.50965    7.76876   13.43689    0    0    0
     129       43        2  0.52000000   15.71791    8.18415   14.24911    0    0    0
     130       44        1 -1.04000000    4.32322    2.00440   14.78066    0    0    0
     131       44        2  0.52000000    4.26048    1.88957   15.72867    0    0    0
     132       44        2  0.52000000    3.41630    2.10603   14.49067    0    0    0
     133       45        1 -1.04000000    3.21413   12.32438    3.96086    0    0    0
     134       45        2  0.52000000    3.47154   11.42500    3.75912    0    0    0
     135       45        2  0.52000000    2.31433   12.25063    4.28002    0    0    0
     136       46        1 -1.04000000   14.22863    2.77731    0.77474    0    0    0
     137       46        2  0.52000000   14.30600    2.93168    1.71603    0    0    0
     138       46        2  0.52000000   13.46537    3.29100    0.50923    0    0    0
     139       47        1 -1.04000000   11.61224    0.01363   11.04541    0    0    0
     140       47        2  0.52000000   12.26363   -0.30924   11.66773    0    0    0
     141       47        2  0.52000000   12.12412    0.29561   10.28686    0    0    0
     142       48        1 -1.04000000    2.66916    5.89037   -0.17642    0    0    0
     143       48        2  0.52000000    2.83154    6.69507    0.31545    0    0    0
     144       48        2  0.52000000    3.49930    5.41456   -0.13903    0    0    0
     145       49        1 -1.04000000   18.25924   13.99300   18.29214    0    0    0
     146       49        2  0.52000000   17.36759   13.64544   18.29214    0    0    0
     147       49        2  0.52000000   18.37317   14.36156   17.41572    0    0    0
     148       50        1 -1.04000000   -0.27751   18.89133   12.25255    0    0    0
     149       50        2  0.52000000   -0.30389   18.84304   11.29714    0    0    0
     150       50        2  0.52000000    0.58140   19.26564   12.45031    0    0    0
     151       51        1 -1.04000000    2.90039   18.24202   18.70999    0    0    0
     152       51        2  0.52000000    2.89616   17.28507   18.70152    0    0    0
     153       51        2  0.52000000    3.20345   18.47291   19.58850    0    0    0
     154       52        1 -1.04000000   14.96405   17.71712   13.73300    0    0    0
     155       52        2  0.52000000   14.39036   18.47110   13.86805    0    0    0
     156       52        2  0.52000000   15.64558   17.81178   14.39895    0    0    0
     157       53        1 -1.04000000   18.62366   19.05179   18.90894    0    0    0
     158       53        2  0.52000000   19.05116   19.21843   19.74878    0    0    0
     159       53        2  0.52000000   19.32518   18.72978   18.34227    0    0    0
     160       54        1 -1.04000000   16.15563   16.29553    1.20258    0    0    0
     161       54        2  0.52000000   15.85196   16.30360    0.29508    0    0    0
     162       54        2  0.52000000   15.99241   15.40086    1.50234    0    0    0
     163       55        1 -1.04000000    5.86254   10.27166    6.75524    0    0    0
     164       55        2  0.52000000    5.98199   10.34323    7.70205    0    0    0
     165       55        2  0.52000000    6.15547    9.38512    6.54271    0    0    0
     166       56        1 -1.04000000    8.09694   17.32410    6.80464    0    0    0
     167       56        2  0.52000000    8.60486   16.51743    6.88921    0    0    0
     168       56        2  0.52000000    7.29820   17.15847    7.30616    0    0    0
     169       57        1 -1.04000000   10.70289   17.17079   18.81249    0    0    0
     170       57        2  0.52000000   11.55008   17.55399   19.03898    0    0    0
     171       57        2  0.52000000   10.74703   16.27522   19.14853    0    0    0
     172       58        1 -1.04000000    5.11608    2.87736   16.35226    0    0    0
     173       58        2  0.52000000    4.27766    3.27462   16.11755    0    0    0
     174       58        2  0.52000000    5.60626    2.84802   15.53019    0    0    0
     175       59        1 -1.04000000   17.06907    5.63663    1.12566    0    0    0
     176       59        2  0.52000000   16.52959    6.30788    1.54307    0    0    0
     177       59        2  0.52000000   17.40134    6.05549    0.33126    0    0    0
     178       60        1 -1.04000000   11.88886    4.04407   15.37190    0    0    0
     179       60        2  0.52000000   11.84322    3.25174   14.83714    0    0    0
     180       60        2  0.52000000   12.26792    4.70419   14.79097    0    0    0
     181       61        1 -1.04000000   14.03880   -0.34275   10.18335    0    0    0
     182       61        2  0.52000000   14.04825   -0.17869    9.24056    0    0    0
     183       61        2  0.52000000   13.91296    0.52145   10.57609    0    0    0
     184       62        1 -1.04000000    0.99815   10.73388   13.28597    0    0    0
     185       62        2  0.52000000    0.89635   10.58423   12.34624    0    0    0
     186       62        2  0.52000000    1.10551   11.68189   13.36778    0    0    0
     187       63        1 -1.04000000   13.98392    3.38979   18.97981    0    0    0
     188       63        2  0.52000000   13.25875    2.78009   19.11486    0    0    0
     189       63        2  0.52000000   14.75733    2.83012   18.90534    0    0    0
     190       64        1 -1.04000000   17.16462    6.98309    2.64614    0    0    0
     191       64        2  0.52000000   17.53446    7.35456    3.44682    0    0    0
     192       64        2  0.52000000   16.30092    6.66235    2.90704    0    0    0
     193       65        1 -1.04000000    8.64284   11.90295    9.12499    0    0    0
     194       65        2  0.52000000    9.35379   12.29543    9.63132    0    0    0
     195       65        2  0.52000000    9.00337   11.80162    8.24369    0    0    0
     196       66        1 -1.04000000   10.25933   11.16993   13.23764    0    0    0
     197       66        2  0.52000000   10.25611   11.16718   12.28065    0    0    0
     198       66        2  0.52000000    9.48456   10.66289   13.48171    0    0    0
     199       67        1 -1.04000000   20.26433    7.92167    0.27676    0    0    0
     200       67        2  0.52000000   20.24877    7.60225   -0.62523    0    0    0
     201       67        2  0.52000000   19.48690    8.47609    0.34847    0    0    0
     202       68        1 -1.04000000   20.06230   16.33270   11.80498    0    0    0
     203       68        2  0.52000000   19.41945   16.17007   12.49501    0    0    0
     204       68        2  0.52000000   20.51826   15.49723   11.70001    0    0    0
     205       69        1 -1.04000000    2.19918    4.96893   16.33461    0    0    0
     206       69        2  0.52000000    2.44779    5.45420   15.54813    0    0    0
     207       69        2  0.52000000    1.35303    4.57686   16.11725    0    0    0
     208       70        1 -1.04000000    7.29781   16.88941   16.22733    0    0    0
     209       70        2  0.52000000    7.32996   17.44757   15.45063    0    0    0
     210       70        2  0.52000000    6.37223   16.66302   16.32204    0    0    0
     211       71        1 -1.04000000   17.28031    4.03109   14.27030    0    0    0
     212       71        2  0.52000000   17.29870    4.35036   13.36831    0    0    0
     213       71        2  0.52000000   16.42099    3.61854   14.36139    0    0    0
     214       72        1 -1.04000000   20.26580    0.02702   12.28499    0    0    0
     215       72        2  0.52000000   20.41247   -0.20141   11.36730    0    0    0
     216       72        2  0.52000000   19.32172    0.17439   12.34770    0    0    0
     217       73        1 -1.04000000   12.28725   13.20382   15.83104    0    0    0
     218       73        2  0.52000000   11.71290   13.48221   16.54411    0    0    0
     219       73        2  0.52000000   11.99986   12.31397   15.62486    0    0    0
     220       74        1 -1.04000000    6.97722   10.38433    0.06612    0    0    0
     221       74        2  0.52000000    7.63266    9.77099    0.39787    0    0    0
     222       74        2  0.52000000    6.39012    9.84467   -0.46399    0    0    0
     223       75        1 -1.04000000   17.27131   10.28082   -0.01152    0    0    0
     224       75        2  0.52000000   17.22568    9.48848   -0.54628    0    0    0
     225       75        2  0.52000000   16.50301   10.23070    0.55780    0    0    0
     226       76        1 -1.04000000   10.98878    8.13784   12.36534    0    0    0
     227       76        2  0.52000000   10.27394    7.74322   11.86622    0    0    0
     228       76        2  0.52000000   11.73729    8.11894   11.76844    0    0    0
     229       77        1 -1.04000000   -0.10496    0.30125   10.22547    0    0    0
     230       77        2  0.52000000   -0.01757    0.28561    9.27259    0    0    0
     231       77        2  0.52000000    0.12253   -0.58686   10.50194    0    0    0
     232       78        1 -1.04000000   17.86468    5.67560   10.17046    0    0    0
     233       78        2  0.52000000   17.46881    6.16817    9.45176    0    0    0
     234       78        2  0.52000000   18.66651    6.15623   10.37778    0    0    0
     235       79        1 -1.04000000    3.24424    4.70031    5.05597    0    0    0
     236       79        2  0.52000000    3.41638    5.51603    4.58606    0    0    0
     237       79        2  0.52000000    2.33938    4.78367    5.35798    0    0    0
     238       80        1 -1.04000000    1.96819   16.61258    7.96134    0    0    0
     239       80        2  0.52000000    2.69508   17.17076    7.68582    0    0    0
     240       80        2  0.52000000    1.33673   17.21667    8.35284    0    0    0
     241       81        1 -1.04000000    3.18187    2.93970   18.34042    0    0    0
     242       81        2  0.52000000    2.99743    3.77707   17.91541    0    0    0
     243       81        2  0.52000000    2.82069    2.28323   17.74417    0    0    0
     244       82        1 -1.04000000   13.84878    9.16986    7.68238    0    0    0
     245       82        2  0.52000000   14.07761    8.24818    7.80064    0    0    0
     246       82        2  0.52000000   14.07360    9.58196    8.51698    0    0    0
     247       83        1 -1.04000000   14.00968    9.61423    4.93924    0    0    0
     248       83        2  0.52000000   14.75079   10.20447    5.07429    0    0    0
     249       83        2  0.52000000   13.23953   10.18130    4.98647    0    0    0
     250       84        1 -1.04000000   19.04937    3.25880    6.28842    0    0    0
     251       84        2  0.52000000   18.72243    2.36193    6.35613    0    0    0
     252       84        2  0.52000000   19.22820    3.37927    5.35545    0    0    0
     253       85        1 -1.04000000   14.05292   13.69717   10.75897    0    0    0
     254       85        2  0.52000000   14.58284   14.49119   10.82668    0    0    0
     255       85        2  0.52000000   13.36424   13.81164   11.41436    0    0    0
     256       86        1 -1.04000000   18.26066    1.04358    8.71232    0    0    0
     257       86        2  0.52000000   17.34236    0.78514    8.63619    0    0    0
     258       86        2  0.52000000   18.39698    1.17128    9.65149    0    0    0
     259       87        1 -1.04000000   13.71350   17.94952    4.26072    0    0    0
     260       87        2  0.52000000   14.06467   17.30668    3.64485    0    0    0
     261       87        2  0.52000000   14.22183   18.74380    4.09443    0    0    0
     262       88        1 -1.04000000    6.67963    5.90087   16.20034    0    0    0
     263       88        2  0.52000000    6.81809    5.84970   15.25480    0    0    0
     264       88        2  0.52000000    7.50228    6.24943   16.54486    0    0    0
     265       89        1 -1.04000000   12.80646    0.26012   18.78210    0    0    0
     266       89        2  0.52000000   12.50781   -0.17065   19.58278    0    0    0
     267       89        2  0.52000000   13.68573   -0.08947   18.63512    0    0    0
     268       90        1 -1.04000000    6.22642   18.84394   13.27746    0    0    0
     269       90        2  0.52000000    5.88315   19.73625   13.23512    0    0    0
     270       90        2  0.52000000    5.89044   18.41981   12.48742    0    0    0
     271       91        1 -1.04000000   16.25952   17.28477   15.06446    0    0    0
     272       91        2  0.52000000   16.34614   16.35512   15.27445    0    0    0
     273       91        2  0.52000000   15.39434   17.36010   14.66109    0    0    0
     274       92        1 -1.04000000   18.92733   12.91561   13.62557    0    0    0
     275       92        2  0.52000000   18.30825   12.92109   14.35534    0    0    0
     276       92        2  0.52000000   19.76442   13.16329   14.01910    0    0    0
     277       93        1 -1.04000000   15.18584    6.67927    6.87671    0    0    0
     278       93        2  0.52000000   15.45551    7.59090    6.76686    0    0    0
     279       93        2  0.52000000   14.35865    6.72983    7.35643    0    0    0
     280       94        1 -1.04000000   17.67014   14.79403    5.96296    0    0    0
     281       94        2  0.52000000   18.19473   15.18953    5.26708    0    0    0
     282       94        2  0.52000000   18.13513   15.01644    6.76996    0    0    0
     283       95        1 -1.04000000   10.17817    9.16065   19.30830    0    0    0
     284       95        2  0.52000000   10.14407    9.49460   18.41210    0    0    0
     285       95        2  0.52000000    9.67775    8.34475   19.27960    0    0    0
     286       96        1 -1.04000000   -0.09125   13.89239   13.63573    0    0    0
     287       96        2  0.52000000    0.74145   14.24271   13.95153    0    0    0
     288       96        2  0.52000000   -0.65020   13.86490   14.41274    0    0    0
     289       97        1 -1.04000000   12.07963   16.62680    6.08356    0    0    0
     290       97        2  0.52000000   12.47057   17.16991    5.39942    0    0    0
     291       97        2  0.52000000   11.44980   17.20329    6.51703    0    0    0
     292       98        1 -1.04000000    0.03103    4.76202    8.69177    0    0    0
     293       98        2  0.52000000    0.63179    4.84223    9.43239    0    0    0
     294       98        2  0.52000000   -0.66282    5.39575    8.87584    0    0    0
     295       99        1 -1.04000000    7.90636   13.36648   19.90240    0    0    0
     296       99        2  0.52000000    8.32413   12.70299   19.35368    0    0    0
     297       99        2  0.52000000    7.76951   12.93052   20.74392    0    0    0
     298      100        1 -1.04000000   13.86022    1.04627    1.36183    0    0    0
     299      100        2  0.52000000   14.76812    1.12681    1.07013    0    0    0
     300      100        2  0.52000000   13.37166    0.82692    0.56804    0    0    0
     301      101        1 -1.04000000   11.97603   11.93277    8.61593    0    0    0
     302      101        2  0.52000000   11.84424   11.30826    9.32901    0    0    0
     303      101        2  0.52000000   12.17973   12.75897    9.05506    0    0    0
     304      102        1 -1.04000000    9.77819   17.75590   12.20934    0    0    0
     305      102        2  0.52000000    9.84084   17.81882   11.25646    0    0    0
     306      102        2  0.52000000   10.38097   18.42527   12.53420    0    0    0
     307      103        1 -1.04000000    1.90607    8.35679   14.87163    0    0    0
     308      103        2  0.52000000    2.26168    8.11718   15.72718    0    0    0
     309      103        2  0.52000000    1.83225    7.52603   14.40119    0    0    0
     310      104        1 -1.04000000    9.02542   -0.33705    4.80416    0    0    0
     311      104        2  0.52000000    9.04561   -0.20776    5.75217    0    0    0
     312      104        2  0.52000000    8.92897    0.54481    4.44367    0    0    0
     313      105        1 -1.04000000   -0.23936    1.03117    7.30714    0    0    0
     314      105        2  0.52000000   -0.42795    0.63766    6.45541    0    0    0
     315      105        2  0.52000000    0.66732    1.33117    7.23744    0    0    0
     316      106        1 -1.04000000   17.64263   19.15257   15.04017    0    0    0
     317      106        2  0.52000000   18.33275   19.42863   14.43737    0    0    0
     318      106        2  0.52000000   18.02461   18.41880   15.52247    0    0    0
     319      107        1 -1.04000000    7.99283   13.71004    3.26167    0    0    0
     320      107        2  0.52000000    7.43090   13.82085    2.49499    0    0    0
     321      107        2  0.52000000    8.57627   14.46911    3.24334    0    0    0
     322      108        1 -1.04000000   -0.31224   11.00274   19.76526    0    0    0
     323      108        2  0.52000000    0.26840   10.26702   19.95872    0    0    0
     324      108        2  0.52000000    0.04383   11.73024   20.27602    0    0    0
     325      109        1 -1.04000000   18.30707   13.02129   11.75947    0    0    0
     326      109        2  0.52000000   17.87670   12.23353   12.09122    0    0    0
     327      109        2  0.52000000   17.81622   13.74518   12.14931    0    0    0
     328      110        1 -1.04000000   12.75164    6.81266    2.23627    0    0    0
     329      110        2  0.52000000   12.80282    6.76215    1.28198    0    0    0
     330      110        2  0.52000000   13.44553    7.42518    2.48175    0    0    0
     331      111        1 -1.04000000   13.34171   17.11427   17.84906    0    0    0
     332      111        2  0.52000000   12.54947   17.63794   17.96732    0    0    0
     333      111        2  0.52000000   13.10882   16.24780   18.18361    0    0    0
     334      112        1 -1.04000000    1.30858   13.76233    5.97008    0    0    0
     335      112        2  0.52000000    1.21015   14.52522    6.53943    0    0    0
     336      112        2  0.52000000    0.48127   13.71244    5.49049    0    0    0
     337      113        1 -1.04000000    0.13944    4.95486   18.63789    0    0    0
     338      113        2  0.52000000   -0.51278    4.41627   19.08553    0    0    0