Created by /global/cfs/cdirs/m5056/rsb/codes/ATLAS-toolkit/scripts/createLammpsInput.pl on Thu Apr  9 14:47:53 2026

         819 atoms
         526 bonds
         253 angles

           6 atom types
           2 bond types
           1 angle types

		   0.000000  20.249320 xlo xhi
		   0.000000  20.249320 ylo yhi
		   0.000000  20.249320 zlo zhi

Masses

    1 1.5999E+01 # OW     
    2 1.0080E+00 # HW     
    3 6.9410E+00 # Li     
    4 3.9948E+01 # K_     
    5 1.5999E+01 # O_3    
    6 1.0080E+00 # H_     

Atoms

       1        1        1 -1.04000000    8.89545   17.27362    5.25846    0    0    0
       2        1        2  0.52000000    8.93523   17.35300    4.30559    0    0    0
       3        1        2  0.52000000    9.16931   16.37338    5.43595    0    0    0
       4        2        1 -1.04000000   10.71548    2.78978    8.16570    0    0    0
       5        2        2  0.52000000   10.85828    2.94932    7.23296    0    0    0
       6        2        2  0.52000000   11.42624    3.26090    8.60134    0    0    0
       7        3        1 -1.04000000   15.35459    5.88011    2.11178    0    0    0
       8        3        2  0.52000000   15.13463    6.45188    1.37656    0    0    0
       9        3        2  0.52000000   14.51077    5.66801    2.51167    0    0    0
      10        4        1 -1.04000000   14.87650    2.74389    6.73213    0    0    0
      11        4        2  0.52000000   14.95726    2.61044    7.67633    0    0    0
      12        4        2  0.52000000   15.16624    3.64567    6.59154    0    0    0
      13        5        1 -1.04000000   10.68869   14.90608    0.78351    0    0    0
      14        5        2  0.52000000   10.79285   14.81367    1.73033    0    0    0
      15        5        2  0.52000000   11.51845   15.28025    0.48616    0    0    0
      16        6        1 -1.04000000    6.85873    2.64650   16.91235    0    0    0
      17        6        2  0.52000000    7.23179    2.93825   17.74395    0    0    0
      18        6        2  0.52000000    6.90948    3.41525   16.34369    0    0    0
      19        7        1 -1.04000000   -0.20931   13.05841   13.67537    0    0    0
      20        7        2  0.52000000    0.68611   12.72750   13.74308    0    0    0
      21        7        2  0.52000000   -0.47680   13.21409   14.58154    0    0    0
      22        8        1 -1.04000000   18.92115   18.28447   10.74415    0    0    0
      23        8        2  0.52000000   19.25049   17.40521   10.55899    0    0    0
      24        8        2  0.52000000   18.82836   18.31032   11.69686    0    0    0
      25        9        1 -1.04000000   10.19088    9.18901   17.71638    0    0    0
      26        9        2  0.52000000    9.89406    9.53889   18.55622    0    0    0
      27        9        2  0.52000000    9.91507    8.27210   17.72741    0    0    0
      28       10        1 -1.04000000    9.17070    3.82208    0.69700    0    0    0
      29       10        2  0.52000000    9.55930    4.03660    1.54483    0    0    0
      30       10        2  0.52000000    8.27000    4.14132    0.75816    0    0    0
      31       11        1 -1.04000000   20.34653   18.02412   14.82129    0    0    0
      32       11        2  0.52000000   20.02598   18.55378   15.55106    0    0    0
      33       11        2  0.52000000   19.62750   17.42210   14.62766    0    0    0
      34       12        1 -1.04000000   13.99690   11.30791    9.75962    0    0    0
      35       12        2  0.52000000   13.69887   10.41755    9.57447    0    0    0
      36       12        2  0.52000000   14.30423   11.27453   10.66591    0    0    0
      37       13        1 -1.04000000    1.03363    4.02272   15.38853    0    0    0
      38       13        2  0.52000000    1.66501    4.30830   14.72849    0    0    0
      39       13        2  0.52000000    0.30136    3.66899   14.88298    0    0    0
      40       14        1 -1.04000000    8.34272   10.15236    4.89077    0    0    0
      41       14        2  0.52000000    8.03367    9.25553    4.76411    0    0    0
      42       14        2  0.52000000    7.62361   10.59211    5.34512    0    0    0
      43       15        1 -1.04000000    1.19890   18.29456   17.16211    0    0    0
      44       15        2  0.52000000    1.54444   17.46292   16.83832    0    0    0
      45       15        2  0.52000000    0.25666   18.24252   16.99957    0    0    0
      46       16        1 -1.04000000    3.97964   16.29679    5.25319    0    0    0
      47       16        2  0.52000000    4.22417   16.33165    4.32861    0    0    0
      48       16        2  0.52000000    3.79619   15.37156    5.41820    0    0    0
      49       17        1 -1.04000000   12.34832    0.17256    0.03874    0    0    0
      50       17        2  0.52000000   11.56942    0.29769    0.58050    0    0    0
      51       17        2  0.52000000   12.08226   -0.47025   -0.61924    0    0    0
      52       18        1 -1.04000000   18.96642    7.80720    9.66191    0    0    0
      53       18        2  0.52000000   18.30073    7.92020   10.34010    0    0    0
      54       18        2  0.52000000   19.73284    8.27259    9.99799    0    0    0
      55       19        1 -1.04000000    9.31960    4.94670   11.78179    0    0    0
      56       19        2  0.52000000    9.18774    4.70017   12.69704    0    0    0
      57       19        2  0.52000000    8.49266    5.35312   11.52117    0    0    0
      58       20        1 -1.04000000    0.23799    6.88481   14.71243    0    0    0
      59       20        2  0.52000000    0.48112    7.25619   15.56026    0    0    0
      60       20        2  0.52000000   -0.71911    6.85900   14.72730    0    0    0
      61       21        1 -1.04000000   11.87140    3.64282   18.90789    0    0    0
      62       21        2  0.52000000   12.71734    3.88089   19.28679    0    0    0
      63       21        2  0.52000000   11.41126    4.47629   18.80533    0    0    0
      64       22        1 -1.04000000    3.71669   11.01299   17.73136    0    0    0
      65       22        2  0.52000000    4.43079   10.37949   17.79904    0    0    0
      66       22        2  0.52000000    3.85252   11.60752   18.46961    0    0    0
      67       23        1 -1.04000000    7.12681    1.88745    6.64807    0    0    0
      68       23        2  0.52000000    6.36222    1.56579    7.12534    0    0    0
      69       23        2  0.52000000    7.51096    2.54676    7.22659    0    0    0
      70       24        1 -1.04000000    9.67461   18.79583   12.07094    0    0    0
      71       24        2  0.52000000   10.38493   18.99573   12.68030    0    0    0
      72       24        2  0.52000000    9.94046   19.20844   11.24875    0    0    0
      73       25        1 -1.04000000    9.99566    7.19967    0.33573    0    0    0
      74       25        2  0.52000000    9.84105    6.26377    0.20907    0    0    0
      75       25        2  0.52000000   10.16329    7.53656   -0.54480    0    0    0
      76       26        1 -1.04000000    5.31535   19.22560   14.04756    0    0    0
      77       26        2  0.52000000    4.50339   19.23998   14.55389    0    0    0
      78       26        2  0.52000000    5.18126   18.53442   13.39855    0    0    0
      79       27        1 -1.04000000    7.33073   17.99511   11.20783    0    0    0
      80       27        2  0.52000000    7.22808   18.18302   10.27509    0    0    0
      81       27        2  0.52000000    6.44119   17.82187   11.51707    0    0    0
      82       28        1 -1.04000000    4.32310   12.07335    2.79305    0    0    0
      83       28        2  0.52000000    4.25206   11.59031    3.61613    0    0    0
      84       28        2  0.52000000    3.42484   12.33634    2.59082    0    0    0
      85       29        1 -1.04000000    8.03092   -0.37045   18.87994    0    0    0
      86       29        2  0.52000000    7.76336   -0.05506   19.74295    0    0    0
      87       29        2  0.52000000    8.20572    0.42550   18.37711    0    0    0
      88       30        1 -1.04000000    5.34976   12.04735    1.16741    0    0    0
      89       30        2  0.52000000    4.91944   11.22541    0.93270    0    0    0
      90       30        2  0.52000000    4.73080   12.72724    0.89989    0    0    0
      91       31        1 -1.04000000    6.06328   -0.34718   17.16752    0    0    0
      92       31        2  0.52000000    5.22146    0.06085   16.96577    0    0    0
      93       31        2  0.52000000    6.71527    0.28634   16.86671    0    0    0
      94       32        1 -1.04000000    3.32592   18.12991    1.82823    0    0    0
      95       32        2  0.52000000    3.09247   18.18025    2.75496    0    0    0
      96       32        2  0.52000000    2.58161   17.68984    1.41681    0    0    0
      97       33        1 -1.04000000   15.10651   14.98023   12.37532    0    0    0
      98       33        2  0.52000000   14.21883   15.01954   12.01989    0    0    0
      99       33        2  0.52000000   15.67466   15.00023   11.60479    0    0    0
     100       34        1 -1.04000000    5.89050    9.36899    6.93324    0    0    0
     101       34        2  0.52000000    5.34544    8.58279    6.90783    0    0    0
     102       34        2  0.52000000    6.76406    9.04822    7.15892    0    0    0
     103       35        1 -1.04000000    4.64836    1.12381    8.88329    0    0    0
     104       35        2  0.52000000    5.43196    0.99792    8.34853    0    0    0
     105       35        2  0.52000000    4.91968    0.87826    9.76818    0    0    0
     106       36        1 -1.04000000    5.82689   12.69735    8.82383    0    0    0
     107       36        2  0.52000000    5.97947   13.57269    8.46839    0    0    0
     108       36        2  0.52000000    6.19363   12.72996    9.70778    0    0    0
     109       37        1 -1.04000000   19.00616    5.33848    3.80507    0    0    0
     110       37        2  0.52000000   19.08692    5.20503    4.74927    0    0    0
     111       37        2  0.52000000   18.90692    4.45649    3.44565    0    0    0
     112       38        1 -1.04000000    8.07025   17.18641   16.66397    0    0    0
     113       38        2  0.52000000    7.24218   16.81186   16.96373    0    0    0
     114       38        2  0.52000000    8.68757   17.00172   17.37230    0    0    0
     115       39        1 -1.04000000    6.24283   16.83187    8.25567    0    0    0
     116       39        2  0.52000000    5.72973   17.63098    8.37393    0    0    0
     117       39        2  0.52000000    6.02744   16.53715    7.37041    0    0    0
     118       40        1 -1.04000000    7.07605   10.00642    9.38312    0    0    0
     119       40        2  0.52000000    6.26444   10.25827    8.94299    0    0    0
     120       40        2  0.52000000    7.65952    9.73531    8.67390    0    0    0
     121       41        1 -1.04000000    8.74563   14.83219   17.75559    0    0    0
     122       41        2  0.52000000    9.69049   14.68896   17.80639    0    0    0
     123       41        2  0.52000000    8.56388   15.47885   18.43803    0    0    0
     124       42        1 -1.04000000   14.28076    6.78501   15.16600    0    0    0
     125       42        2  0.52000000   14.17021    6.98738   14.23719    0    0    0
     126       42        2  0.52000000   13.54903    7.22761   15.59681    0    0    0
     127       43        1 -1.04000000    3.29382   13.16801    2.80495    0    0    0
     128       43        2  0.52000000    3.28269   12.88866    3.72020    0    0    0
     129       43        2  0.52000000    2.42349   12.94333    2.47484    0    0    0
     130       44        1 -1.04000000    4.93793   15.38178    9.94526    0    0    0
     131       44        2  0.52000000    5.77424   14.93920   10.08869    0    0    0
     132       44        2  0.52000000    4.28783   14.67902    9.96604    0    0    0
     133       45        1 -1.04000000   13.85947   10.25830    3.74284    0    0    0
     134       45        2  0.52000000   14.75488    9.92739    3.81055    0    0    0
     135       45        2  0.52000000   13.38565    9.81431    4.44661    0    0    0
     136       46        1 -1.04000000   -0.00529   19.25204    5.29841    0    0    0
     137       46        2  0.52000000    0.34619   18.36196    5.28994    0    0    0
     138       46        2  0.52000000   -0.34090   19.38599    4.41165    0    0    0
     139       47        1 -1.04000000    8.13576    7.83235    0.32567    0    0    0
     140       47        2  0.52000000    8.50270    8.58094   -0.14423    0    0    0
     141       47        2  0.52000000    7.36153    7.58671   -0.18144    0    0    0
     142       48        1 -1.04000000   13.23366   19.31030   11.04146    0    0    0
     143       48        2  0.52000000   13.00115   18.85647   10.23162    0    0    0
     144       48        2  0.52000000   12.76519   18.83322   11.72692    0    0    0
     145       49        1 -1.04000000    9.17960   18.78319    2.27081    0    0    0
     146       49        2  0.52000000    8.83156   18.49578    1.42694    0    0    0
     147       49        2  0.52000000    8.98884   19.72103    2.30225    0    0    0
     148       50        1 -1.04000000    2.76081    2.94076   19.30312    0    0    0
     149       50        2  0.52000000    3.71134    3.05060   19.32006    0    0    0
     150       50        2  0.52000000    2.52785    3.00864   18.37681    0    0    0
     151       51        1 -1.04000000    4.88531    1.93464   13.36766    0    0    0
     152       51        2  0.52000000    5.76178    2.16464   13.05987    0    0    0
     153       51        2  0.52000000    4.35291    1.90072   12.57247    0    0    0
     154       52        1 -1.04000000    0.79054    6.98666   18.32947    0    0    0
     155       52        2  0.52000000    0.83803    7.70097   17.69437    0    0    0
     156       52        2  0.52000000    1.37143    6.31237   17.97616    0    0    0
     157       53        1 -1.04000000    5.07400    8.61656   12.99000    0    0    0
     158       53        2  0.52000000    5.53076    9.28801   13.49633    0    0    0
     159       53        2  0.52000000    4.39523    9.09543   12.51367    0    0    0
     160       54        1 -1.04000000    1.99687   15.67081    2.78970    0    0    0
     161       54        2  0.52000000    1.87150   15.76361    3.73390    0    0    0
     162       54        2  0.52000000    2.13164   16.56558    2.47640    0    0    0
     163       55        1 -1.04000000    7.13207   -0.35121    1.10869    0    0    0
     164       55        2  0.52000000    6.75249    0.32925    1.66433    0    0    0
     165       55        2  0.52000000    7.11544    0.02195    0.22698    0    0    0
     166       56        1 -1.04000000   16.32868    2.04620    9.20600    0    0    0
     167       56        2  0.52000000   15.42702    2.10214    9.52180    0    0    0
     168       56        2  0.52000000   16.24429    1.85165    8.27221    0    0    0
     169       57        1 -1.04000000    8.27719    2.23019    3.15093    0    0    0
     170       57        2  0.52000000    7.80962    1.51598    3.58351    0    0    0
     171       57        2  0.52000000    7.91319    2.25383    2.26556    0    0    0
     172       58        1 -1.04000000   11.30737   15.92154    3.77203    0    0    0
     173       58        2  0.52000000   11.14799   15.61713    4.66522    0    0    0
     174       58        2  0.52000000   10.54464   16.46134    3.56276    0    0    0
     175       59        1 -1.04000000   18.08926   18.62438   18.94049    0    0    0
     176       59        2  0.52000000   17.80175   19.26758   18.29282    0    0    0
     177       59        2  0.52000000   18.10899   19.10805   19.76669    0    0    0
     178       60        1 -1.04000000    9.74734   14.94106   12.70795    0    0    0
     179       60        2  0.52000000    9.57235   15.33253   13.56351    0    0    0
     180       60        2  0.52000000   10.68031   14.72641   12.72854    0    0    0
     181       61        1 -1.04000000    7.79833    0.79325    8.73697    0    0    0
     182       61        2  0.52000000    7.76233    0.72142    9.69059    0    0    0
     183       61        2  0.52000000    8.43934    1.48533    8.57245    0    0    0
     184       62        1 -1.04000000    1.75108    3.27035   17.86753    0    0    0
     185       62        2  0.52000000    2.20974    3.25817   18.70737    0    0    0
     186       62        2  0.52000000    2.03919    2.47148   17.42511    0    0    0
     187       63        1 -1.04000000   12.94340    2.62073    0.92546    0    0    0
     188       63        2  0.52000000   13.33300    3.01205    1.70709    0    0    0
     189       63        2  0.52000000   12.72360    3.36722    0.36745    0    0    0
     190       64        1 -1.04000000    3.90835    4.81068    0.67082    0    0    0
     191       64        2  0.52000000    4.46982    4.50715    1.38389    0    0    0
     192       64        2  0.52000000    3.62182    5.68217    0.94529    0    0    0
     193       65        1 -1.04000000    4.96531    8.96632    9.38764    0    0    0
     194       65        2  0.52000000    4.37191    8.63185    8.71544    0    0    0
     195       65        2  0.52000000    5.66278    9.40182    8.89693    0    0    0
     196       66        1 -1.04000000   -0.35594   14.86747   16.90867    0    0    0
     197       66        2  0.52000000    0.43693   14.83236   16.37390    0    0    0
     198       66        2  0.52000000   -0.08098   15.30017   17.71743    0    0    0
     199       67        1 -1.04000000   11.18183   19.33409   18.08901    0    0    0
     200       67        2  0.52000000   11.10583   18.91979   17.22969    0    0    0
     201       67        2  0.52000000   10.71235   18.74612   18.68130    0    0    0
     202       68        1 -1.04000000    4.13161   10.85322   17.33725    0    0    0
     203       68        2  0.52000000    4.12601   10.43204   16.47793    0    0    0
     204       68        2  0.52000000    3.74238   11.71473   17.18481    0    0    0
     205       69        1 -1.04000000   18.05613    3.05199    8.61692    0    0    0
     206       69        2  0.52000000   17.98754    3.72371    9.29511    0    0    0
     207       69        2  0.52000000   17.95633    2.22429    9.08797    0    0    0
     208       70        1 -1.04000000    3.29043   18.77431    7.13159    0    0    0
     209       70        2  0.52000000    2.96167   18.84216    6.23539    0    0    0
     210       70        2  0.52000000    2.74790   19.38353    7.63302    0    0    0
     211       71        1 -1.04000000    1.29786   11.83095   16.81210    0    0    0
     212       71        2  0.52000000    1.20715   11.97788   17.75340    0    0    0
     213       71        2  0.52000000    0.49499   12.19116   16.43450    0    0    0
     214       72        1 -1.04000000   14.31914   11.82782   14.14528    0    0    0
     215       72        2  0.52000000   14.13893   12.05204   13.23254    0    0    0
     216       72        2  0.52000000   13.54193   12.12014   14.62218    0    0    0
     217       73        1 -1.04000000    4.80746    4.76977    5.74995    0    0    0
     218       73        2  0.52000000    5.72691    4.71273    6.00921    0    0    0
     219       73        2  0.52000000    4.46563    5.51750    6.24085    0    0    0
     220       74        1 -1.04000000   11.10279    7.26023    4.72739    0    0    0
     221       74        2  0.52000000   11.10934    7.37410    5.67757    0    0    0
     222       74        2  0.52000000   10.78787    6.36567    4.59504    0    0    0
     223       75        1 -1.04000000   13.96791   16.29300    9.25636    0    0    0
     224       75        2  0.52000000   14.35403   15.42918    9.39979    0    0    0
     225       75        2  0.52000000   13.67806   16.27781    8.34384    0    0    0
     226       76        1 -1.04000000   10.66057   12.19267   12.98363    0    0    0
     227       76        2  0.52000000   11.24922   11.98103   12.25937    0    0    0
     228       76        2  0.52000000   11.09021   11.82630   13.75700    0    0    0
     229       77        1 -1.04000000   18.97692   17.32159    7.22056    0    0    0
     230       77        2  0.52000000   18.70889   17.21712    6.30782    0    0    0
     231       77        2  0.52000000   19.31420   16.46128    7.47162    0    0    0
     232       78        1 -1.04000000   18.97701    1.32279    2.78118    0    0    0
     233       78        2  0.52000000   19.17361    1.26178    3.71578    0    0    0
     234       78        2  0.52000000   18.84938    0.41544    2.50304    0    0    0
     235       79        1 -1.04000000    0.15377   14.80681    9.69729    0    0    0
     236       79        2  0.52000000    0.33250   14.67451   10.62810    0    0    0
     237       79        2  0.52000000   -0.48627   15.51868    9.67461    0    0    0
     238       80        1 -1.04000000    1.72132   12.24579   12.12052    0    0    0
     239       80        2  0.52000000    2.58869   12.46522   11.78087    0    0    0
     240       80        2  0.52000000    1.68999   11.28899   12.09861    0    0    0
     241       81        1 -1.04000000   12.62535   16.97503   13.89223    0    0    0
     242       81        2  0.52000000   12.97524   17.05698   14.77920    0    0    0
     243       81        2  0.52000000   13.39941   16.96799   13.32857    0    0    0
     244       82        1 -1.04000000    2.16870    8.67461    5.86487    0    0    0
     245       82        2  0.52000000    1.78075    8.81798    6.72788    0    0    0
     246       82        2  0.52000000    2.05054    9.50741    5.40726    0    0    0
     247       83        1 -1.04000000   17.82178    5.78628    7.27416    0    0    0
     248       83        2  0.52000000   18.14563    5.49382    6.42244    0    0    0
     249       83        2  0.52000000   18.03259    6.71990    7.30340    0    0    0
     250       84        1 -1.04000000   -0.10947    4.64579    8.12311    0    0    0
     251       84        2  0.52000000    0.46022    5.27103    8.57074    0    0    0
     252       84        2  0.52000000   -0.35075    5.08318    7.30616    0    0    0
     253       85        1 -1.04000000    6.07002    7.33764   16.81642    0    0    0
     254       85        2  0.52000000    5.50951    7.19055   17.57803    0    0    0
     255       85        2  0.52000000    6.42047    6.47182   16.60555    0    0    0
     256       86        1 -1.04000000   17.01838    9.35747   11.84353    0    0    0
     257       86        2  0.52000000   17.25635    8.52602   11.43376    0    0    0
     258       86        2  0.52000000   16.72527    9.11652   12.72271    0    0    0
     259       87        1 -1.04000000   19.12859   11.02488    8.36803    0    0    0
     260       87        2  0.52000000   19.64887   10.91749    7.57202    0    0    0
     261       87        2  0.52000000   18.22254   11.05763    8.05995    0    0    0
     262       88        1 -1.04000000   15.10249   14.65544   14.84710    0    0    0
     263       88        2  0.52000000   14.22763   14.94399   15.10636    0    0    0
     264       88        2  0.52000000   15.66989   15.40057   15.04654    0    0    0
     265       89        1 -1.04000000    3.25609   12.89083   16.72595    0    0    0
     266       89        2  0.52000000    3.18841   12.57013   17.62507    0    0    0
     267       89        2  0.52000000    2.55550   13.53904   16.64897    0    0    0
     268       90        1 -1.04000000   17.23373   18.72202    1.85613    0    0    0
     269       90        2  0.52000000   16.82117   18.75128    2.71914    0    0    0
     270       90        2  0.52000000   16.94511   19.52671    1.42473    0    0    0
     271       91        1 -1.04000000   11.87983   18.74182   12.26740    0    0    0
     272       91        2  0.52000000   11.63361   19.66346   12.19127    0    0    0
     273       91        2  0.52000000   12.48655   18.59472   11.54133    0    0    0
     274       92        1 -1.04000000    5.99407    3.65623    8.81456    0    0    0
     275       92        2  0.52000000    5.99614    3.81220    9.75876    0    0    0
     276       92        2  0.52000000    6.00979    4.53157    8.42668    0    0    0
     277       93        1 -1.04000000    1.83080   12.15379    6.31673    0    0    0
     278       93        2  0.52000000    2.41643   11.39809    6.27439    0    0    0
     279       93        2  0.52000000    1.75277   12.44812    5.40887    0    0    0
     280       94        1 -1.04000000    6.68094   15.17217    4.14547    0    0    0
     281       94        2  0.52000000    7.11226   15.34915    3.30971    0    0    0
     282       94        2  0.52000000    7.20679   14.47868    4.54481    0    0    0
     283       95        1 -1.04000000   13.86126   -0.35749    0.07452    0    0    0
     284       95        2  0.52000000   14.75653   -0.11407   -0.16019    0    0    0
     285       95        2  0.52000000   13.38221    0.47156    0.08567    0    0    0
     286       96        1 -1.04000000   11.14474    5.72530    0.76295    0    0    0
     287       96        2  0.52000000   10.98442    5.66117    1.70424    0    0    0
     288       96        2  0.52000000   10.87084    6.61353    0.53281    0    0    0
     289       97        1 -1.04000000    2.16999   18.68063   13.85266    0    0    0
     290       97        2  0.52000000    1.47256   18.72390   14.50654    0    0    0
     291       97        2  0.52000000    2.35745   19.59546   13.64080    0    0    0
     292       98        1 -1.04000000    9.19300   19.71172   13.17957    0    0    0
     293       98        2  0.52000000    9.39057   20.64795   13.19652    0    0    0
     294       98        2  0.52000000    8.41643   19.64033   12.62391    0    0    0
     295       99        1 -1.04000000    1.69831    0.14584    3.79921    0    0    0
     296       99        2  0.52000000    1.79674   -0.74037    4.14677    0    0    0
     297       99        2  0.52000000    2.50496    0.59453    4.05402    0    0    0
     298      100        1 -1.04000000   14.94945    8.38734   15.99631    0    0    0
     299      100        2  0.52000000   14.75759    7.77860   16.70938    0    0    0
     300      100        2  0.52000000   15.29296    7.83406   15.29431    0    0    0
     301      101        1 -1.04000000    5.99023    5.23419    0.68749    0    0    0
     302      101        2  0.52000000    6.00491    5.48895    1.60985    0    0    0
     303      101        2  0.52000000    6.00486    4.27686    0.70266    0    0    0
     304      102        1 -1.04000000   10.19386   14.66092    8.00662    0    0    0
     305      102        2  0.52000000   10.22700   15.34128    7.33441    0    0    0
     306      102        2  0.52000000    9.57914   14.99781    8.65897    0    0    0
     307      103        1 -1.04000000    4.16458    0.16389   -0.31410    0    0    0
     308      103        2  0.52000000    4.60004   -0.15250    0.47718    0    0    0
     309      103        2  0.52000000    3.23538   -0.01139   -0.16308    0    0    0
     310      104        1 -1.04000000   11.07924   17.72769    4.26865    0    0    0
     311      104        2  0.52000000   11.39622   17.77002    3.36666    0    0    0
     312      104        2  0.52000000   10.52454   18.50229    4.36469    0    0    0
     313      105        1 -1.04000000   11.28277   16.90175   18.74903    0    0    0
     314      105        2  0.52000000   11.34941   16.99432   19.69920    0    0    0
     315      105        2  0.52000000   10.36782   17.10393   18.55177    0    0    0
     316      106        1 -1.04000000   16.09451   11.70345    7.76393    0    0    0
     317      106        2  0.52000000   16.13488   11.72668    8.71980    0    0    0
     318      106        2  0.52000000   15.77061   12.56987    7.51627    0    0    0
     319      107        1 -1.04000000    0.20015    3.67119    1.06654    0    0    0
     320      107        2  0.52000000   -0.39728    3.85658    0.34228    0    0    0
     321      107        2  0.52000000    0.19713    4.47223    1.59119    0    0    0
     322      108        1 -1.04000000    3.19276    9.25189    1.77197    0    0    0
     323      108        2  0.52000000    3.56084    8.63137    2.40071    0    0    0
     324      108        2  0.52000000    2.24640    9.11674    1.82732    0    0    0
     325      109        1 -1.04000000   15.79420   11.10961   11.31342    0    0    0
     326      109        2  0.52000000   16.27814   10.29377   11.18676    0    0    0
     327      109        2  0.52000000   15.92766   11.59662   10.49982    0    0    0
     328      110        1 -1.04000000   17.71291   -0.12360    6.23432    0    0    0
     329      110        2  0.52000000   17.63392    0.23501    5.35057    0    0    0
     330      110        2  0.52000000   18.65317   -0.11141    6.41512    0    0    0
     331      111        1 -1.04000000   11.88766    2.37370   18.01809    0    0    0
     332      111        2  0.52000000   12.27143    1.91313   17.27214    0    0    0
     333      111        2  0.52000000   11.84092    1.71317   18.70978    0    0    0
     334      112        1 -1.04000000   16.91003   18.35128    7.85472    0    0    0
     335      112        2  0.52000000   16.75472   18.02722    8.74169    0    0    0
     336      112        2  0.52000000   17.33526   17.62150    7.40359    0    0    0
     337      113        1 -1.04000000    2.77308    1.05029    7.31397    0    0    0
     338      113        2  0.52000000    3.10674    0.22676    6.95854    0    0    0