Created by /global/cfs/cdirs/m5056/rsb/codes/ATLAS-toolkit/scripts/createLammpsInput.pl on Thu Apr  9 14:48:02 2026

         885 atoms
         570 bonds
         275 angles

           6 atom types
           2 bond types
           1 angle types

		   0.000000  20.248890 xlo xhi
		   0.000000  20.248890 ylo yhi
		   0.000000  20.248890 zlo zhi

Masses

    1 1.5999E+01 # OW     
    2 1.0080E+00 # HW     
    3 6.9410E+00 # Li     
    4 3.9948E+01 # K_     
    5 1.5999E+01 # O_3    
    6 1.0080E+00 # H_     

Atoms

       1        1        1 -1.04000000   11.10093   16.67428    1.80942    0    0    0
       2        1        2  0.52000000   10.94301   16.77867    2.74751    0    0    0
       3        1        2  0.52000000   10.95606   17.54705    1.44307    0    0    0
       4        2        1 -1.04000000   18.12230    2.67073    5.82904    0    0    0
       5        2        2  0.52000000   17.81486    2.78435    6.72816    0    0    0
       6        2        2  0.52000000   18.06284    3.54492    5.44279    0    0    0
       7        3        1 -1.04000000    4.08782    6.73347   17.72825    0    0    0
       8        3        2  0.52000000    4.41477    7.63034   17.79593    0    0    0
       9        3        2  0.52000000    3.49741    6.63619   18.47582    0    0    0
      10        4        1 -1.04000000    6.81779   12.11130    9.67287    0    0    0
      11        4        2  0.52000000    7.28470   11.29143    9.83303    0    0    0
      12        4        2  0.52000000    6.89751   12.59727   10.49410    0    0    0
      13        5        1 -1.04000000   11.66132   18.82657   17.91158    0    0    0
      14        5        2  0.52000000   12.29550   19.21423   17.30878    0    0    0
      15        5        2  0.52000000   12.04318   18.95919   18.77964    0    0    0
      16        6        1 -1.04000000   11.63995   15.08783   14.87650    0    0    0
      17        6        2  0.52000000   12.14370   15.51903   15.56653    0    0    0
      18        6        2  0.52000000   12.21635   14.39314   14.55697    0    0    0
      19        7        1 -1.04000000   14.27351    2.98814    3.27866    0    0    0
      20        7        2  0.52000000   13.78392    3.75064    2.97087    0    0    0
      21        7        2  0.52000000   13.94257    2.26122    2.75047    0    0    0
      22        8        1 -1.04000000    1.67094    4.16819   15.87339    0    0    0
      23        8        2  0.52000000    2.00549    3.29854   15.65514    0    0    0
      24        8        2  0.52000000    2.32358    4.53327   16.47147    0    0    0
      25        9        1 -1.04000000   20.09755   13.30294   18.22653    0    0    0
      26        9        2  0.52000000   19.90014   13.31168   17.29015    0    0    0
      27        9        2  0.52000000   20.00231   12.38538   18.48332    0    0    0
      28       10        1 -1.04000000   12.88756    8.09758   13.36116    0    0    0
      29       10        2  0.52000000   12.45868    7.49050   12.75836    0    0    0
      30       10        2  0.52000000   13.65376    8.41192   12.88048    0    0    0
      31       11        1 -1.04000000    9.37935   10.95464    1.91855    0    0    0
      32       11        2  0.52000000    8.76503   10.29228    2.23435    0    0    0
      33       11        2  0.52000000    8.85562   11.75309    1.84710    0    0    0
      34       12        1 -1.04000000   15.38256   14.98537   14.92229    0    0    0
      35       12        2  0.52000000   14.95658   14.93615   15.77785    0    0    0
      36       12        2  0.52000000   14.66086   15.07847   14.29986    0    0    0
      37       13        1 -1.04000000   18.66938   18.04386    2.20339    0    0    0
      38       13        2  0.52000000   19.30628   18.71848    1.96869    0    0    0
      39       13        2  0.52000000   19.02434   17.23766    1.82792    0    0    0
      40       14        1 -1.04000000   19.18313   11.99007    9.65508    0    0    0
      41       14        2  0.52000000   18.42008   12.51409    9.89799    0    0    0
      42       14        2  0.52000000   19.39679   11.49583   10.44692    0    0    0
      43       15        1 -1.04000000    5.94897    6.65982    5.18513    0    0    0
      44       15        2  0.52000000    6.01868    6.80864    4.24235    0    0    0
      45       15        2  0.52000000    6.03235    7.53155    5.57252    0    0    0
      46       16        1 -1.04000000    7.93851    5.01288   12.61444    0    0    0
      47       16        2  0.52000000    7.39356    4.59441   13.28059    0    0    0
      48       16        2  0.52000000    8.66793    5.39271   13.10497    0    0    0
      49       17        1 -1.04000000   -0.07894    5.29785    1.24012    0    0    0
      50       17        2  0.52000000   -0.50000    4.43884    1.21471    0    0    0
      51       17        2  0.52000000    0.57894    5.26331    0.54518    0    0    0
      52       18        1 -1.04000000    7.09353   12.71736    6.74708    0    0    0
      53       18        2  0.52000000    7.24045   13.65843    6.65408    0    0    0
      54       18        2  0.52000000    6.66603   12.62421    7.59884    0    0    0
      55       19        1 -1.04000000   10.35230    6.83193   19.01545    0    0    0
      56       19        2  0.52000000    9.53026    6.50310   19.37873    0    0    0
      57       19        2  0.52000000   10.11744    7.66498   18.60582    0    0    0
      58       20        1 -1.04000000   13.22726   12.05544   13.68714    0    0    0
      59       20        2  0.52000000   13.47173   11.66718   14.52698    0    0    0
      60       20        2  0.52000000   12.30101   12.27738   13.78589    0    0    0
      61       21        1 -1.04000000   11.95109    7.68958    6.23205    0    0    0
      62       21        2  0.52000000   11.43350    7.93482    5.46536    0    0    0
      63       21        2  0.52000000   12.61541    8.37561    6.30259    0    0    0
      64       22        1 -1.04000000   12.33228   15.18991   12.07828    0    0    0
      65       22        2  0.52000000   11.45903   15.37016   12.42583    0    0    0
      66       22        2  0.52000000   12.20870   14.43993   11.49589    0    0    0
      67       23        1 -1.04000000   12.29851    8.10401   -0.22952    0    0    0
      68       23        2  0.52000000   12.09869    8.42135    0.65095    0    0    0
      69       23        2  0.52000000   11.60281    7.47464   -0.42143    0    0    0
      70       24        1 -1.04000000    9.21829    7.72456    8.82946    0    0    0
      71       24        2  0.52000000    8.29291    7.91557    8.67765    0    0    0
      72       24        2  0.52000000    9.48879    8.35987    9.49289    0    0    0
      73       25        1 -1.04000000   11.22600   11.75256    9.20074    0    0    0
      74       25        2  0.52000000   10.27009   11.76948    9.15840    0    0    0
      75       25        2  0.52000000   11.50391   12.47796    8.64085    0    0    0
      76       26        1 -1.04000000   18.90494   17.11825    2.64003    0    0    0
      77       26        2  0.52000000   18.38815   17.20598    3.44071    0    0    0
      78       26        2  0.52000000   19.70691   16.67577    2.91927    0    0    0
      79       27        1 -1.04000000    2.26454   12.22337   11.18091    0    0    0
      80       27        2  0.52000000    1.98136   12.27402   10.26817    0    0    0
      81       27        2  0.52000000    1.75410   11.50261   11.55091    0    0    0
      82       28        1 -1.04000000    8.80677    8.66763   12.06925    0    0    0
      83       28        2  0.52000000    8.85157    9.44551   12.62489    0    0    0
      84       28        2  0.52000000    9.34166    8.88685   11.30586    0    0    0
      85       29        1 -1.04000000    0.27513    2.17493   16.21519    0    0    0
      86       29        2  0.52000000    0.21771    2.13164   15.26089    0    0    0
      87       29        2  0.52000000   -0.49284    1.69342   16.52392    0    0    0
      88       30        1 -1.04000000    2.23414   15.90311    4.70269    0    0    0
      89       30        2  0.52000000    2.38692   15.76514    5.63729    0    0    0
      90       30        2  0.52000000    1.37893   16.33174    4.66002    0    0    0
      91       31        1 -1.04000000   13.80709    4.22445   17.74504    0    0    0
      92       31        2  0.52000000   14.26881    4.50111   18.53631    0    0    0
      93       31        2  0.52000000   13.92410    3.27443   17.71865    0    0    0
      94       32        1 -1.04000000    6.80600   -0.07047   16.33166    0    0    0
      95       32        2  0.52000000    6.51859    0.45565   15.58571    0    0    0
      96       32        2  0.52000000    7.67541   -0.38517   16.08263    0    0    0
      97       33        1 -1.04000000   11.77863   18.31580    4.93779    0    0    0
      98       33        2  0.52000000   12.17615   18.03232    5.76088    0    0    0
      99       33        2  0.52000000   12.04522   17.65188    4.30133    0    0    0
     100       34        1 -1.04000000    3.83898    2.65666   11.90622    0    0    0
     101       34        2  0.52000000    3.95638    3.02914   12.77991    0    0    0
     102       34        2  0.52000000    4.20464    3.31420   11.31388    0    0    0
     103       35        1 -1.04000000    3.34087    4.15316    7.11380    0    0    0
     104       35        2  0.52000000    3.16810    3.62144    6.33710    0    0    0
     105       35        2  0.52000000    2.49103    4.22540    7.54910    0    0    0
     106       36        1 -1.04000000   14.05915    4.15904    8.35186    0    0    0
     107       36        2  0.52000000   14.59150    3.49667    7.91174    0    0    0
     108       36        2  0.52000000   13.34935    4.34429    7.73640    0    0    0
     109       37        1 -1.04000000   17.67777    6.21474   12.94844    0    0    0
     110       37        2  0.52000000   17.78431    5.44288   13.50409    0    0    0
     111       37        2  0.52000000   18.53792    6.34238   12.54747    0    0    0
     112       38        1 -1.04000000   16.23980    4.78290    3.78099    0    0    0
     113       38        2  0.52000000   16.47667    5.47025    4.40331    0    0    0
     114       38        2  0.52000000   15.28354    4.74686    3.81570    0    0    0
     115       39        1 -1.04000000    6.87190   11.68702    5.19553    0    0    0
     116       39        2  0.52000000    6.67157   11.93629    4.29355    0    0    0
     117       39        2  0.52000000    7.45653   12.37670    5.51092    0    0    0
     118       40        1 -1.04000000   13.96019   -0.01432   14.38835    0    0    0
     119       40        2  0.52000000   13.75712   -0.70081   13.75325    0    0    0
     120       40        2  0.52000000   14.28269    0.71513   13.85841    0    0    0
     121       41        1 -1.04000000    2.68052    6.13853   13.82296    0    0    0
     122       41        2  0.52000000    2.82213    6.01290   14.76105    0    0    0
     123       41        2  0.52000000    3.49735    5.84856   13.41598    0    0    0
     124       42        1 -1.04000000   14.76819   13.89770   10.29732    0    0    0
     125       42        2  0.52000000   14.59869   13.79613    9.36095    0    0    0
     126       42        2  0.52000000   15.63312   14.30617   10.34173    0    0    0
     127       43        1 -1.04000000    4.10863    8.08959    9.36438    0    0    0
     128       43        2  0.52000000    4.32636    7.30262    8.86526    0    0    0
     129       43        2  0.52000000    3.56501    8.60779    8.77036    0    0    0
     130       44        1 -1.04000000   -0.17163   12.08931   19.66064    0    0    0
     131       44        2  0.52000000   -0.31397   11.31337   20.20240    0    0    0
     132       44        2  0.52000000    0.48561   12.59732   20.13696    0    0    0
     133       45        1 -1.04000000    3.96695    1.30611   -0.24043    0    0    0
     134       45        2  0.52000000    3.82894    1.28768    0.70639    0    0    0
     135       45        2  0.52000000    4.20411    0.40621   -0.46596    0    0    0
     136       46        1 -1.04000000    9.07010    6.64932    4.84279    0    0    0
     137       46        2  0.52000000    8.84562    7.46071    4.38769    0    0    0
     138       46        2  0.52000000    9.08428    6.88997    5.76952    0    0    0
     139       47        1 -1.04000000   -0.10541   15.14654   13.65357    0    0    0
     140       47        2  0.52000000   -0.44635   15.38068   14.51658    0    0    0
     141       47        2  0.52000000    0.55177   14.47277   13.82985    0    0    0
     142       48        1 -1.04000000    5.88296    0.20850   12.30892    0    0    0
     143       48        2  0.52000000    6.09262    0.52876   11.43181    0    0    0
     144       48        2  0.52000000    6.02442   -0.73726   12.25927    0    0    0
     145       49        1 -1.04000000    1.16126   17.78481   17.28336    0    0    0
     146       49        2  0.52000000    1.26724   17.68205   16.33781    0    0    0
     147       49        2  0.52000000    0.57150   18.53314   17.37884    0    0    0
     148       50        1 -1.04000000   16.33357   17.96418   18.20013    0    0    0
     149       50        2  0.52000000   16.21433   17.93625   17.25100    0    0    0
     150       50        2  0.52000000   15.45210   18.09956   18.54887    0    0    0
     151       51        1 -1.04000000   10.00706    5.05666   16.38645    0    0    0
     152       51        2  0.52000000   10.32268    5.64673   15.70231    0    0    0
     153       51        2  0.52000000    9.67026    4.29661   15.91124    0    0    0
     154       52        1 -1.04000000    8.22210    8.29986   16.11557    0    0    0
     155       52        2  0.52000000    7.27336    8.20722   16.20014    0    0    0
     156       52        2  0.52000000    8.50454    7.49292   15.68428    0    0    0
     157       53        1 -1.04000000   18.18809   16.69002   12.85463    0    0    0
     158       53        2  0.52000000   17.77338   17.40348   12.37004    0    0    0
     159       53        2  0.52000000   18.03853   16.90651   13.77533    0    0    0
     160       54        1 -1.04000000   12.83869   10.05620    2.35132    0    0    0
     161       54        2  0.52000000   13.27741    9.26973    2.02753    0    0    0
     162       54        2  0.52000000   12.88390   10.67406    1.62115    0    0    0
     163       55        1 -1.04000000    8.86145   15.80390    2.30814    0    0    0
     164       55        2  0.52000000    8.37242   16.12715    1.55169    0    0    0
     165       55        2  0.52000000    9.76613   16.06896    2.14017    0    0    0
     166       56        1 -1.04000000   16.83083    7.21593   15.27814    0    0    0
     167       56        2  0.52000000   17.46221    7.50151   14.61809    0    0    0
     168       56        2  0.52000000   16.70696    6.28256   15.10377    0    0    0
     169       57        1 -1.04000000    5.08675    3.71336    4.25083    0    0    0
     170       57        2  0.52000000    5.10561    3.68025    3.29459    0    0    0
     171       57        2  0.52000000    4.80764    4.60639    4.45459    0    0    0
     172       58        1 -1.04000000    6.83033    7.12919   12.67270    0    0    0
     173       58        2  0.52000000    7.05438    6.22677   12.89919    0    0    0
     174       58        2  0.52000000    7.11530    7.64404   13.42811    0    0    0
     175       59        1 -1.04000000   10.82587    9.67642    2.86742    0    0    0
     176       59        2  0.52000000   10.77788   10.04835    3.74788    0    0    0
     177       59        2  0.52000000   11.39625   10.27523    2.38470    0    0    0
     178       60        1 -1.04000000    6.69249   -0.00394    2.24088    0    0    0
     179       60        2  0.52000000    6.70291    0.20992    1.30814    0    0    0
     180       60        2  0.52000000    7.60461   -0.20598    2.45099    0    0    0
     181       61        1 -1.04000000   16.71886   10.88293   17.24466    0    0    0
     182       61        2  0.52000000   16.69809   10.88703   16.28790    0    0    0
     183       61        2  0.52000000   17.58305   11.23004   17.46744    0    0    0
     184       62        1 -1.04000000   11.72110   12.13457   19.23814    0    0    0
     185       62        2  0.52000000   11.72209   12.13045   18.28115    0    0    0
     186       62        2  0.52000000   12.55681   11.73498   19.48072    0    0    0
     187       63        1 -1.04000000    7.07594    9.63173    0.10588    0    0    0
     188       63        2  0.52000000    6.89059   10.37828    0.67523    0    0    0
     189       63        2  0.52000000    7.03347    9.98999   -0.78112    0    0    0
     190       64        1 -1.04000000   13.89647    7.25184   18.71989    0    0    0
     191       64        2  0.52000000   13.51703    7.15941   19.59358    0    0    0
     192       64        2  0.52000000   14.58649    6.58875   18.68653    0    0    0
     193       65        1 -1.04000000    9.31274   12.10501    6.79079    0    0    0
     194       65        2  0.52000000    9.29525   11.74607    7.67775    0    0    0
     195       65        2  0.52000000    8.39201   12.14893    6.53146    0    0    0
     196       66        1 -1.04000000   14.14401    5.24232    0.27045    0    0    0
     197       66        2  0.52000000   14.50281    5.05244   -0.59619    0    0    0
     198       66        2  0.52000000   13.35318    4.70523    0.32574    0    0    0
     199       67        1 -1.04000000   19.28067   16.06670    8.26340    0    0    0
     200       67        2  0.52000000   19.34592   15.56097    7.45356    0    0    0
     201       67        2  0.52000000   18.37341   16.37234    8.28304    0    0    0
     202       68        1 -1.04000000   15.77121    7.69003    8.93540    0    0    0
     203       68        2  0.52000000   16.00373    8.38464    8.31953    0    0    0
     204       68        2  0.52000000   16.22506    7.92533    9.74507    0    0    0
     205       69        1 -1.04000000   -0.27458    0.07709   11.26696    0    0    0
     206       69        2  0.52000000   -0.38126    0.01695   10.31783    0    0    0
     207       69        2  0.52000000    0.65584   -0.09404   11.41521    0    0    0
     208       70        1 -1.04000000   -0.24174    6.72003    3.87440    0    0    0
     209       70        2  0.52000000   -0.21336    7.63607    3.59887    0    0    0
     210       70        2  0.52000000    0.45510    6.64391    4.52673    0    0    0
     211       71        1 -1.04000000    9.36783   19.91038   15.90373    0    0    0
     212       71        2  0.52000000    9.02191   20.76417   16.16298    0    0    0
     213       71        2  0.52000000    8.61026   19.32545   15.93329    0    0    0
     214       72        1 -1.04000000   20.14734    3.27939   13.77015    0    0    0
     215       72        2  0.52000000   20.03544    3.30146   14.72033    0    0    0
     216       72        2  0.52000000   19.81722    2.41915   13.50952    0    0    0
     217       73        1 -1.04000000    6.62315    4.92751   10.92697    0    0    0
     218       73        2  0.52000000    7.27495    4.32832   11.29026    0    0    0
     219       73        2  0.52000000    7.10190    5.74417   10.78277    0    0    0
     220       74        1 -1.04000000    8.90142   12.69900   14.77134    0    0    0
     221       74        2  0.52000000    8.33705   13.19082   15.36754    0    0    0
     222       74        2  0.52000000    9.76154   13.11018   14.86111    0    0    0
     223       75        1 -1.04000000    6.63519   16.11780   14.07509    0    0    0
     224       75        2  0.52000000    7.35301   16.00248   14.69741    0    0    0
     225       75        2  0.52000000    7.01181   15.87972   13.22750    0    0    0
     226       76        1 -1.04000000    9.15660    8.97205    1.35679    0    0    0
     227       76        2  0.52000000    9.43474    9.53947    0.63809    0    0    0
     228       76        2  0.52000000    8.40866    8.48847    1.00512    0    0    0
     229       77        1 -1.04000000    0.31593    9.95064   -0.22440    0    0    0
     230       77        2  0.52000000    0.26302   10.39136    0.62343    0    0    0
     231       77        2  0.52000000   -0.57895    9.65801   -0.39903    0    0    0
     232       78        1 -1.04000000   12.85115    3.11359    7.34285    0    0    0
     233       78        2  0.52000000   13.43605    3.60535    6.76673    0    0    0
     234       78        2  0.52000000   12.71280    2.28106    6.89042    0    0    0
     235       79        1 -1.04000000    8.17311    2.12142    4.32847    0    0    0
     236       79        2  0.52000000    8.44297    2.29301    3.42648    0    0    0
     237       79        2  0.52000000    7.38391    1.58557    4.24505    0    0    0
     238       80        1 -1.04000000    2.92533    0.28926    4.74829    0    0    0
     239       80        2  0.52000000    3.39580    0.34362    5.57989    0    0    0
     240       80        2  0.52000000    2.67887   -0.63288    4.67182    0    0    0
     241       81        1 -1.04000000   10.75281   13.76442   16.81026    0    0    0
     242       81        2  0.52000000   10.97486   13.75262   17.74106    0    0    0
     243       81        2  0.52000000   11.27233   14.48296   16.44868    0    0    0
     244       82        1 -1.04000000    8.96013    2.90657    1.37721    0    0    0
     245       82        2  0.52000000    9.57226    3.53238    0.99054    0    0    0
     246       82        2  0.52000000    8.46761    2.56104    0.63225    0    0    0
     247       83        1 -1.04000000   13.99649   18.96803   14.61068    0    0    0
     248       83        2  0.52000000   13.42426   18.52862   15.23942    0    0    0
     249       83        2  0.52000000   14.57925   19.50335   15.14990    0    0    0
     250       84        1 -1.04000000    3.11742   11.25171   15.72531    0    0    0
     251       84        2  0.52000000    3.10759   11.38220   16.67332    0    0    0
     252       84        2  0.52000000    2.77498   10.36610   15.60138    0    0    0
     253       85        1 -1.04000000    3.69275   16.01350    6.24087    0    0    0
     254       85        2  0.52000000    3.68588   15.97602    5.28463    0    0    0
     255       85        2  0.52000000    4.62137   16.01048    6.47450    0    0    0
     256       86        1 -1.04000000   14.18219    5.67008    6.10276    0    0    0
     257       86        2  0.52000000   14.57045    6.46215    5.73165    0    0    0
     258       86        2  0.52000000   13.24736    5.86777    6.16558    0    0    0
     259       87        1 -1.04000000    5.14164    2.24809   19.26644    0    0    0
     260       87        2  0.52000000    4.22741    2.11777   19.01535    0    0    0
     261       87        2  0.52000000    5.63095    1.63413   18.71822    0    0    0
     262       88        1 -1.04000000    8.80404    4.03774    6.66418    0    0    0
     263       88        2  0.52000000    8.83964    4.65582    7.39394    0    0    0
     264       88        2  0.52000000    9.35632    3.30644    6.94188    0    0    0
     265       89        1 -1.04000000   17.12806    0.00586   11.63099    0    0    0
     266       89        2  0.52000000   16.32568    0.39477   11.97854    0    0    0
     267       89        2  0.52000000   17.54626   -0.40062   12.39047    0    0    0
     268       90        1 -1.04000000    9.06370   15.98400   13.61492    0    0    0
     269       90        2  0.52000000    8.62016   16.67478   14.10680    0    0    0
     270       90        2  0.52000000    9.31613   15.34123   14.27829    0    0    0
     271       91        1 -1.04000000   15.80824    9.93308   10.66631    0    0    0
     272       91        2  0.52000000   15.47301    9.85768   11.55949    0    0    0
     273       91        2  0.52000000   16.71875   10.20924   10.77420    0    0    0
     274       92        1 -1.04000000    6.30810   16.11863    3.20882    0    0    0
     275       92        2  0.52000000    5.75014   15.35779    3.36898    0    0    0
     276       92        2  0.52000000    5.94176   16.52357    2.42221    0    0    0
     277       93        1 -1.04000000   15.97113   13.31763   18.77444    0    0    0
     278       93        2  0.52000000   16.02249   13.28032   19.72933    0    0    0
     279       93        2  0.52000000   16.00639   12.40205   18.49623    0    0    0
     280       94        1 -1.04000000   15.31157   12.21011    8.89331    0    0    0
     281       94        2  0.52000000   14.59960   12.47323    9.47617    0    0    0
     282       94        2  0.52000000   15.08884   11.31666    8.63052    0    0    0
     283       95        1 -1.04000000   13.97268   16.85035    5.64020    0    0    0
     284       95        2  0.52000000   14.09451   16.37755    6.46328    0    0    0
     285       95        2  0.52000000   13.93281   17.77210    5.89652    0    0    0
     286       96        1 -1.04000000    3.85234   10.97809   18.63900    0    0    0
     287       96        2  0.52000000    4.58659   10.48336   19.00229    0    0    0
     288       96        2  0.52000000    3.56107   11.53854   19.35871    0    0    0
     289       97        1 -1.04000000   11.81465    2.11989    8.67770    0    0    0
     290       97        2  0.52000000   11.59170    2.31418    9.58786    0    0    0
     291       97        2  0.52000000   12.59365    1.56593    8.73443    0    0    0
     292       98        1 -1.04000000    0.93773   18.26421    1.71907    0    0    0
     293       98        2  0.52000000    0.59414   18.26725    2.61226    0    0    0
     294       98        2  0.52000000    1.46812   17.46855    1.66867    0    0    0
     295       99        1 -1.04000000    1.18296    2.81436   18.70903    0    0    0
     296       99        2  0.52000000    1.33809    3.70433   19.02483    0    0    0
     297       99        2  0.52000000    0.47894    2.48131   19.26614    0    0    0
     298      100        1 -1.04000000   15.10142   17.16653   11.66150    0    0    0
     299      100        2  0.52000000   14.30610   16.67065   11.85495    0    0    0
     300      100        2  0.52000000   15.59248   17.16282   12.48355    0    0    0
     301      101        1 -1.04000000   11.77931    1.72906   15.82539    0    0    0
     302      101        2  0.52000000   11.57718    2.22794   16.61667    0    0    0
     303      101        2  0.52000000   12.64351    2.04300   15.55794    0    0    0
     304      102        1 -1.04000000   12.28907    9.01074   16.26254    0    0    0
     305      102        2  0.52000000   11.36076    9.19381   16.40597    0    0    0
     306      102        2  0.52000000   12.35018    8.79545   15.33149    0    0    0
     307      103        1 -1.04000000   17.34925    2.04409    7.16936    0    0    0
     308      103        2  0.52000000   17.04227    2.43306    6.35063    0    0    0
     309      103        2  0.52000000   16.60848    1.52285    7.48001    0    0    0
     310      104        1 -1.04000000   17.10521    7.62543    5.03511    0    0    0
     311      104        2  0.52000000   17.65317    8.40107    5.15337    0    0    0
     312      104        2  0.52000000   16.24162    7.97350    4.81153    0    0    0
     313      105        1 -1.04000000    2.04077   13.73553   11.71540    0    0    0
     314      105        2  0.52000000    1.28357   13.87097   12.28475    0    0    0
     315      105        2  0.52000000    2.67566   14.39350   11.99985    0    0    0
     316      106        1 -1.04000000    2.64251   14.85088   13.05069    0    0    0
     317      106        2  0.52000000    3.45037   14.60020   13.49833    0    0    0
     318      106        2  0.52000000    2.90711   15.54892   12.45098    0    0    0
     319      107        1 -1.04000000   13.32564   10.81713   15.88546    0    0    0
     320      107        2  0.52000000   12.99838   11.66781   15.59376    0    0    0
     321      107        2  0.52000000   12.67598   10.51507   16.52078    0    0    0
     322      108        1 -1.04000000   16.71677   18.15996    5.78367    0    0    0
     323      108        2  0.52000000   16.75654   18.09014    6.73730    0    0    0
     324      108        2  0.52000000   17.52669   17.74990    5.47903    0    0    0
     325      109        1 -1.04000000   15.14411   16.22060    2.28840    0    0    0
     326      109        2  0.52000000   14.33203   15.71426    2.28840    0    0    0
     327      109        2  0.52000000   15.52386   16.06514    1.42321    0    0    0
     328      110        1 -1.04000000    7.87418    1.34871    9.87682    0    0    0
     329      110        2  0.52000000    8.27772    0.65448    9.35619    0    0    0
     330      110        2  0.52000000    7.84809    0.99681   10.76699    0    0    0
     331      111        1 -1.04000000   13.64962    9.00992   18.82756    0    0    0
     332      111        2  0.52000000   14.07579    8.26159   19.24497    0    0    0
     333      111        2  0.52000000   14.27460    9.72849   18.92747    0    0    0
     334      112        1 -1.04000000   16.96782   19.80553    9.33726    0    0    0
     335      112        2  0.52000000   16.40990   20.51245    9.01348    0    0    0
     336      112        2  0.52000000   17.62228   19.68202    8.64926    0    0    0
     337      113        1 -1.04000000    8.82075    2.84459   11.68965    0    0    0
     338      113        2  0.52000000    9.72443    2.70760   11.97327    0    0    0