Created by /global/cfs/cdirs/m5056/rsb/codes/ATLAS-toolkit/scripts/createLammpsInput.pl on Thu Apr  9 14:47:55 2026

         843 atoms
         542 bonds
         261 angles

           6 atom types
           2 bond types
           1 angle types

		   0.000000  20.249720 xlo xhi
		   0.000000  20.249720 ylo yhi
		   0.000000  20.249720 zlo zhi

Masses

    1 1.5999E+01 # OW     
    2 1.0080E+00 # HW     
    3 6.9410E+00 # Li     
    4 3.9948E+01 # K_     
    5 1.5999E+01 # O_3    
    6 1.0080E+00 # H_     

Atoms

       1        1        1 -1.04000000   11.37360    2.94876   11.10197    0    0    0
       2        1        2  0.52000000   10.98284    2.83879   10.23533    0    0    0
       3        1        2  0.52000000   10.64355    3.21245   11.66270    0    0    0
       4        2        1 -1.04000000   14.28044    3.09134    7.25615    0    0    0
       5        2        2  0.52000000   13.83949    2.24911    7.14630    0    0    0
       6        2        2  0.52000000   13.88007    3.65955    6.59755    0    0    0
       7        3        1 -1.04000000   19.24816    6.70878    8.07883    0    0    0
       8        3        2  0.52000000   18.99014    7.04173    7.21951    0    0    0
       9        3        2  0.52000000   18.76170    7.24949    8.70167    0    0    0
      10        4        1 -1.04000000    5.19936   18.99238   13.33585    0    0    0
      11        4        2  0.52000000    4.65132   19.69958   12.99620    0    0    0
      12        4        2  0.52000000    5.14932   18.30804   12.66794    0    0    0
      13        5        1 -1.04000000   18.23761   10.80814    4.24359    0    0    0
      14        5        2  0.52000000   17.41236   11.24486    4.45358    0    0    0
      15        5        2  0.52000000   18.35003   10.94700    3.30284    0    0    0
      16        6        1 -1.04000000   17.34892   15.03801   14.82850    0    0    0
      17        6        2  0.52000000   16.80449   15.72785   15.20740    0    0    0
      18        6        2  0.52000000   16.84659   14.23414   14.96409    0    0    0
      19        7        1 -1.04000000    4.89005    4.69867    4.77704    0    0    0
      20        7        2  0.52000000    4.94451    4.73130    5.73193    0    0    0
      21        7        2  0.52000000    5.16543    5.57004    4.49103    0    0    0
      22        8        1 -1.04000000    8.94043   12.25459   13.70976    0    0    0
      23        8        2  0.52000000    8.87277   12.41345   14.65106    0    0    0
      24        8        2  0.52000000    9.18680   11.33196   13.63918    0    0    0
      25        9        1 -1.04000000    4.91824    8.35005    0.84708    0    0    0
      26        9        2  0.52000000    4.77398    8.05573    1.74620    0    0    0
      27        9        2  0.52000000    5.30778    7.59422    0.40672    0    0    0
      28       10        1 -1.04000000    9.30910    2.90046   13.78285    0    0    0
      29       10        2  0.52000000    9.28549    3.07151   14.72415    0    0    0
      30       10        2  0.52000000    8.40542    3.02804   13.49300    0    0    0
      31       11        1 -1.04000000   10.26294   11.71498   14.95283    0    0    0
      32       11        2  0.52000000   10.28246   12.59688   14.58172    0    0    0
      33       11        2  0.52000000    9.45460   11.68815   15.46545    0    0    0
      34       12        1 -1.04000000    1.03032    5.12868    4.36759    0    0    0
      35       12        2  0.52000000    0.59048    5.55511    3.63237    0    0    0
      36       12        2  0.52000000    1.37920    4.31621    4.00004    0    0    0
      37       13        1 -1.04000000    8.07680   11.62826    8.90775    0    0    0
      38       13        2  0.52000000    7.98270   12.00728    9.78144    0    0    0
      39       13        2  0.52000000    7.94050   12.36446    8.31080    0    0    0
      40       14        1 -1.04000000    3.01083    7.17018    1.64854    0    0    0
      41       14        2  0.52000000    2.35914    7.29271    2.33857    0    0    0
      42       14        2  0.52000000    3.63003    6.53711    2.01289    0    0    0
      43       15        1 -1.04000000   13.02588    1.69941   14.75185    0    0    0
      44       15        2  0.52000000   13.02079    1.67021   15.70839    0    0    0
      45       15        2  0.52000000   12.95334    2.63038   14.53977    0    0    0
      46       16        1 -1.04000000    0.93516    2.63452   11.87826    0    0    0
      47       16        2  0.52000000    0.39020    3.16287   12.46111    0    0    0
      48       16        2  0.52000000    1.67464    3.20261   11.66063    0    0    0
      49       17        1 -1.04000000    6.77746    4.23050    2.22348    0    0    0
      50       17        2  0.52000000    6.74570    4.12975    1.27233    0    0    0
      51       17        2  0.52000000    7.47684    3.63975    2.50419    0    0    0
      52       18        1 -1.04000000   14.88600    0.76748    2.29247    0    0    0
      53       18        2  0.52000000   15.23674    0.50787    1.44074    0    0    0
      54       18        2  0.52000000   14.87726    1.72466    2.26679    0    0    0
      55       19        1 -1.04000000    6.11791    2.84286   12.33765    0    0    0
      56       19        2  0.52000000    6.36814    3.68874   11.96654    0    0    0
      57       19        2  0.52000000    5.51395    2.46840   11.69582    0    0    0
      58       20        1 -1.04000000    0.24816    6.95216    6.70212    0    0    0
      59       20        2  0.52000000    0.24613    6.49334    7.54196    0    0    0
      60       20        2  0.52000000   -0.49428    7.55450    6.75592    0    0    0
      61       21        1 -1.04000000    8.86094   12.05355    5.36111    0    0    0
      62       21        2  0.52000000    9.72001   12.30354    5.02146    0    0    0
      63       21        2  0.52000000    8.41905   11.64291    4.61744    0    0    0
      64       22        1 -1.04000000    5.01731   11.26624    0.28534    0    0    0
      65       22        2  0.52000000    4.85362   10.32714    0.36991    0    0    0
      66       22        2  0.52000000    5.12908   11.40662   -0.65526    0    0    0
      67       23        1 -1.04000000    5.14685   18.96856    0.63938    0    0    0
      68       23        2  0.52000000    4.39801   19.49263    0.92300    0    0    0
      69       23        2  0.52000000    5.45514   18.53881    1.43762    0    0    0
      70       24        1 -1.04000000    1.37781   14.90326   13.97764    0    0    0
      71       24        2  0.52000000    0.62586   14.31519   14.04532    0    0    0
      72       24        2  0.52000000    0.99633   15.78155   13.97704    0    0    0
      73       25        1 -1.04000000    6.71217   14.02874    9.26255    0    0    0
      74       25        2  0.52000000    7.48090   13.45975    9.29642    0    0    0
      75       25        2  0.52000000    6.80693   14.51151    8.44103    0    0    0
      76       26        1 -1.04000000    0.86048   13.72943   18.75520    0    0    0
      77       26        2  0.52000000    1.29747   13.58958   19.59504    0    0    0
      78       26        2  0.52000000    0.84206   14.68099   18.64976    0    0    0
      79       27        1 -1.04000000   10.64369   18.10119   13.87587    0    0    0
      80       27        2  0.52000000   11.36935   17.75736   13.35524    0    0    0
      81       27        2  0.52000000   10.98696   18.14146   14.76889    0    0    0
      82       28        1 -1.04000000   19.33921    3.11888   12.84701    0    0    0
      83       28        2  0.52000000   18.91324    2.26898   12.73716    0    0    0
      84       28        2  0.52000000   18.74756    3.61214   13.41584    0    0    0
      85       29        1 -1.04000000   13.07369   18.21455    4.68198    0    0    0
      86       29        2  0.52000000   12.89309   18.52524    5.56894    0    0    0
      87       29        2  0.52000000   13.03322   17.26020    4.74908    0    0    0
      88       30        1 -1.04000000   13.90535    7.25280    3.71763    0    0    0
      89       30        2  0.52000000   13.33957    6.90696    4.40766    0    0    0
      90       30        2  0.52000000   14.75508    6.84024    3.87471    0    0    0
      91       31        1 -1.04000000   17.26204    5.13487    0.74359    0    0    0
      92       31        2  0.52000000   17.34018    4.36964    1.31294    0    0    0
      93       31        2  0.52000000   16.39779    5.49549    0.94348    0    0    0
      94       32        1 -1.04000000   14.24253    7.27884   10.87339    0    0    0
      95       32        2  0.52000000   13.31789    7.16370   10.65514    0    0    0
      96       32        2  0.52000000   14.43959    6.55746   11.47147    0    0    0
      97       33        1 -1.04000000   16.69972    6.76588   16.08731    0    0    0
      98       33        2  0.52000000   17.11871    6.88781   15.23559    0    0    0
      99       33        2  0.52000000   17.18157    7.34632   16.67710    0    0    0
     100       34        1 -1.04000000    4.25019   15.19815   12.22526    0    0    0
     101       34        2  0.52000000    4.35552   14.95680   11.30520    0    0    0
     102       34        2  0.52000000    3.39428   14.84505   12.46954    0    0    0
     103       35        1 -1.04000000    5.85501   12.65378   16.10822    0    0    0
     104       35        2  0.52000000    5.66598   13.51200   16.48712    0    0    0
     105       35        2  0.52000000    6.47901   12.83422   15.40466    0    0    0
     106       36        1 -1.04000000   13.90403   12.32830   13.81130    0    0    0
     107       36        2  0.52000000   14.02906   12.20921   14.75259    0    0    0
     108       36        2  0.52000000   14.06692   11.46249   13.43611    0    0    0
     109       37        1 -1.04000000    4.09304    5.27178    9.73527    0    0    0
     110       37        2  0.52000000    3.36080    4.65613    9.70986    0    0    0
     111       37        2  0.52000000    4.54616    5.07209   10.55487    0    0    0
     112       38        1 -1.04000000    2.11253   19.36802   18.93294    0    0    0
     113       38        2  0.52000000    1.48292   18.84811   18.43382    0    0    0
     114       38        2  0.52000000    2.40455   18.78387   19.63324    0    0    0
     115       39        1 -1.04000000   16.81182    1.03225    5.34081    0    0    0
     116       39        2  0.52000000   16.46736    1.19920    4.46370    0    0    0
     117       39        2  0.52000000   17.72082    0.76855    5.19549    0    0    0
     118       40        1 -1.04000000   19.09631   19.30986    1.78249    0    0    0
     119       40        2  0.52000000   19.03258   19.26093    2.73611    0    0    0
     120       40        2  0.52000000   18.87111   18.42921    1.48140    0    0    0
     121       41        1 -1.04000000   11.83413   17.31911   12.84750    0    0    0
     122       41        2  0.52000000   12.02426   16.49087   12.40738    0    0    0
     123       41        2  0.52000000   12.14162   17.19002   13.74512    0    0    0
     124       42        1 -1.04000000   10.68392    3.99200    6.22941    0    0    0
     125       42        2  0.52000000   11.58877    3.79686    6.47232    0    0    0
     126       42        2  0.52000000   10.72731    4.21114    5.29827    0    0    0
     127       43        1 -1.04000000   20.31071    0.13403   17.19519    0    0    0
     128       43        2  0.52000000   19.62152    0.64415   16.77017    0    0    0
     129       43        2  0.52000000   20.06777   -0.77818   17.03464    0    0    0
     130       44        1 -1.04000000   11.68520    9.81404   18.13756    0    0    0
     131       44        2  0.52000000   11.84614   10.10863   17.24136    0    0    0
     132       44        2  0.52000000   12.46866   10.07732   18.62108    0    0    0
     133       45        1 -1.04000000   14.76381    7.71822    4.13197    0    0    0
     134       45        2  0.52000000   14.82110    8.06502    3.24186    0    0    0
     135       45        2  0.52000000   15.41510    8.21675    4.62616    0    0    0
     136       46        1 -1.04000000   13.31332   13.04774    6.22838    0    0    0
     137       46        2  0.52000000   13.20174   13.33028    5.32087    0    0    0
     138       46        2  0.52000000   12.48494   12.62198    6.45075    0    0    0
     139       47        1 -1.04000000    6.72776   -0.28011    7.99457    0    0    0
     140       47        2  0.52000000    6.61627    0.64872    7.79282    0    0    0
     141       47        2  0.52000000    7.65596   -0.36861    8.21261    0    0    0
     142       48        1 -1.04000000    4.77288   11.09815   14.69770    0    0    0
     143       48        2  0.52000000    4.64857   11.32100   15.62005    0    0    0
     144       48        2  0.52000000    5.57855   10.58086   14.68225    0    0    0
     145       49        1 -1.04000000   15.93102    1.85849   12.35752    0    0    0
     146       49        2  0.52000000   16.22552    2.73828   12.12281    0    0    0
     147       49        2  0.52000000   15.84347    1.40322   11.51967    0    0    0
     148       50        1 -1.04000000   11.24646    6.78509    8.78629    0    0    0
     149       50        2  0.52000000   11.41070    7.63784    9.18839    0    0    0
     150       50        2  0.52000000   10.34284    6.57707    9.02533    0    0    0
     151       51        1 -1.04000000    2.02063    9.67084    2.79064    0    0    0
     152       51        2  0.52000000    2.38349    9.83497    3.66084    0    0    0
     153       51        2  0.52000000    1.59588   10.49419    2.54852    0    0    0
     154       52        1 -1.04000000    6.97442   11.86532    5.36580    0    0    0
     155       52        2  0.52000000    7.57701   12.52667    5.02615    0    0    0
     156       52        2  0.52000000    6.44857   11.60801    4.60805    0    0    0
     157       53        1 -1.04000000    8.69519   15.03545    4.24173    0    0    0
     158       53        2  0.52000000    8.72567   15.23069    3.30536    0    0    0
     159       53        2  0.52000000    9.57914   14.73385    4.45291    0    0    0
     160       54        1 -1.04000000   13.65275   12.97615    3.17735    0    0    0
     161       54        2  0.52000000   14.51995   12.93005    3.57945    0    0    0
     162       54        2  0.52000000   13.82729   13.09380    2.24321    0    0    0
     163       55        1 -1.04000000    8.35931   19.89674   12.88670    0    0    0
     164       55        2  0.52000000    8.02005   19.95124   13.77989    0    0    0
     165       55        2  0.52000000    7.62064   20.15202   12.33341    0    0    0
     166       56        1 -1.04000000   19.30033    9.05762   11.75693    0    0    0
     167       56        2  0.52000000   19.31262    9.06084   12.71384    0    0    0
     168       56        2  0.52000000   18.38705    8.88154   11.52923    0    0    0
     169       57        1 -1.04000000    2.34990    0.86214    1.89432    0    0    0
     170       57        2  0.52000000    2.10199    1.24822    2.73416    0    0    0
     171       57        2  0.52000000    1.54811    0.88964    1.37152    0    0    0
     172       58        1 -1.04000000   -0.22763    8.68276    8.98782    0    0    0
     173       58        2  0.52000000    0.04371    9.17942    9.75954    0    0    0
     174       58        2  0.52000000    0.18392    9.13782    8.25264    0    0    0
     175       59        1 -1.04000000   18.16449   10.32303    6.14558    0    0    0
     176       59        2  0.52000000   17.98344   10.12076    5.22789    0    0    0
     177       59        2  0.52000000   17.85208    9.55620    6.62652    0    0    0
     178       60        1 -1.04000000    1.85721    2.71238   14.22246    0    0    0
     179       60        2  0.52000000    1.74403    3.65528   14.34072    0    0    0
     180       60        2  0.52000000    2.39877    2.63234   13.43682    0    0    0
     181       61        1 -1.04000000    2.81617    9.77981   19.26519    0    0    0
     182       61        2  0.52000000    3.73089    9.72306   18.98967    0    0    0
     183       61        2  0.52000000    2.45294   10.49713   18.74514    0    0    0
     184       62        1 -1.04000000   11.76555   11.96226    7.31018    0    0    0
     185       62        2  0.52000000   12.70951   11.81060    7.26784    0    0    0
     186       62        2  0.52000000   11.52495   12.22714    6.42199    0    0    0
     187       63        1 -1.04000000   18.23368   -0.05778    8.30767    0    0    0
     188       63        2  0.52000000   17.73719    0.73071    8.08942    0    0    0
     189       63        2  0.52000000   18.02913   -0.67293    7.60291    0    0    0
     190       64        1 -1.04000000   10.71632   14.81195    0.80825    0    0    0
     191       64        2  0.52000000   11.45289   14.43046    1.28552    0    0    0
     192       64        2  0.52000000   10.83078   15.75759    0.90623    0    0    0
     193       65        1 -1.04000000   14.04162   15.14344    9.36096    0    0    0
     194       65        2  0.52000000   14.49489   15.42051    8.56496    0    0    0
     195       65        2  0.52000000   13.46349   14.43606    9.07408    0    0    0
     196       66        1 -1.04000000    2.67086   18.05490    7.79689    0    0    0
     197       66        2  0.52000000    2.76026   17.90718    8.73818    0    0    0
     198       66        2  0.52000000    3.56888   18.03792    7.46493    0    0    0
     199       67        1 -1.04000000   14.35064    3.13694   10.10441    0    0    0
     200       67        2  0.52000000   13.61019    2.92855   10.67376    0    0    0
     201       67        2  0.52000000   14.03917    2.93451    9.22183    0    0    0
     202       68        1 -1.04000000   10.68319   10.14418   11.82266    0    0    0
     203       68        2  0.52000000   11.03402    9.25577   11.76341    0    0    0
     204       68        2  0.52000000   11.28279   10.60005   12.41393    0    0    0
     205       69        1 -1.04000000    2.24041   16.14033   12.27407    0    0    0
     206       69        2  0.52000000    2.28478   16.28112   11.32853    0    0    0
     207       69        2  0.52000000    1.47481   15.57856   12.39740    0    0    0
     208       70        1 -1.04000000   12.62886    1.02707   19.11886    0    0    0
     209       70        2  0.52000000   13.41763    1.01311   19.66062    0    0    0
     210       70        2  0.52000000   12.95351    0.95982   18.22052    0    0    0
     211       71        1 -1.04000000   12.20602    3.33035    2.96798    0    0    0
     212       71        2  0.52000000   12.54039    2.43767    3.05255    0    0    0
     213       71        2  0.52000000   11.25359    3.23198    2.97946    0    0    0
     214       72        1 -1.04000000    0.38703    6.00033   10.94702    0    0    0
     215       72        2  0.52000000   -0.28059    5.60829   10.38450    0    0    0
     216       72        2  0.52000000   -0.10644    6.39138   11.66847    0    0    0
     217       73        1 -1.04000000   11.14006   16.31766   17.17911    0    0    0
     218       73        2  0.52000000   10.61015   16.28009   16.38310    0    0    0
     219       73        2  0.52000000   11.24980   15.40225   17.43780    0    0    0
     220       74        1 -1.04000000    3.38896   11.03527    9.00820    0    0    0
     221       74        2  0.52000000    2.86410   10.27820    9.26746    0    0    0
     222       74        2  0.52000000    2.74694   11.68654    8.72434    0    0    0
     223       75        1 -1.04000000    3.85817    1.75945   10.72683    0    0    0
     224       75        2  0.52000000    3.68631    1.74267   11.66812    0    0    0
     225       75        2  0.52000000    4.45552    2.49787   10.60505    0    0    0
     226       76        1 -1.04000000    4.09179    7.85550   13.64887    0    0    0
     227       76        2  0.52000000    3.99521    7.37691   14.47195    0    0    0
     228       76        2  0.52000000    3.91300    8.76759   13.87918    0    0    0
     229       77        1 -1.04000000    0.01889    1.72686   16.72136    0    0    0
     230       77        2  0.52000000    0.55505    2.51504   16.80593    0    0    0
     231       77        2  0.52000000   -0.57394    1.75811   17.47270    0    0    0
     232       78        1 -1.04000000   19.35696   11.14604   11.06209    0    0    0
     233       78        2  0.52000000   18.69500   11.45969   10.44622    0    0    0
     234       78        2  0.52000000   18.94804   10.39427   11.49169    0    0    0
     235       79        1 -1.04000000    9.71438   18.18398   19.19281    0    0    0
     236       79        2  0.52000000    9.84462   17.24046   19.09981    0    0    0
     237       79        2  0.52000000   10.44099   18.57556   18.70738    0    0    0
     238       80        1 -1.04000000   16.37077    5.98290    9.87819    0    0    0
     239       80        2  0.52000000   15.99233    6.58392   10.51960    0    0    0
     240       80        2  0.52000000   15.63689    5.43319    9.60220    0    0    0
     241       81        1 -1.04000000   14.76123    2.15668    9.26653    0    0    0
     242       81        2  0.52000000   15.34672    2.61458    8.66373    0    0    0
     243       81        2  0.52000000   14.89205    1.22874    9.06974    0    0    0
     244       82        1 -1.04000000   18.82783    1.11430    1.66849    0    0    0
     245       82        2  0.52000000   19.68045    0.69167    1.76992    0    0    0
     246       82        2  0.52000000   18.49172    1.19403    2.56158    0    0    0
     247       83        1 -1.04000000    8.28566    0.73354   12.00079    0    0    0
     248       83        2  0.52000000    8.11274    1.40458   11.34075    0    0    0
     249       83        2  0.52000000    7.60161    0.86188   12.65846    0    0    0
     250       84        1 -1.04000000   10.29023   15.24253    9.09772    0    0    0
     251       84        2  0.52000000   10.12827   14.35960    9.42946    0    0    0
     252       84        2  0.52000000    9.58150   15.39788    8.47282    0    0    0
     253       85        1 -1.04000000    0.23040   13.31528   15.98905    0    0    0
     254       85        2  0.52000000   -0.19798   12.87733   15.25383    0    0    0
     255       85        2  0.52000000   -0.03242   12.80739   16.75711    0    0    0
     256       86        1 -1.04000000    7.76429    6.76512   15.79537    0    0    0
     257       86        2  0.52000000    8.71795    6.72289   15.86306    0    0    0
     258       86        2  0.52000000    7.51776    7.51200   16.34157    0    0    0
     259       87        1 -1.04000000   18.29679   13.98593    1.74639    0    0    0
     260       87        2  0.52000000   17.64511   13.30778    1.92323    0    0    0
     261       87        2  0.52000000   18.05810   14.70628    2.33038    0    0    0
     262       88        1 -1.04000000    7.91098   -0.37020    4.91264    0    0    0
     263       88        2  0.52000000    7.59717    0.14832    5.65325    0    0    0
     264       88        2  0.52000000    8.49184    0.22188    4.43411    0    0    0
     265       89        1 -1.04000000   11.33869    6.15507    2.11765    0    0    0
     266       89        2  0.52000000   11.20561    5.34946    1.61853    0    0    0
     267       89        2  0.52000000   10.45570    6.49548    2.26382    0    0    0
     268       90        1 -1.04000000    2.76597   15.20243   18.76156    0    0    0
     269       90        2  0.52000000    3.10656   14.31710   18.63490    0    0    0
     270       90        2  0.52000000    3.12747   15.48047   19.60355    0    0    0
     271       91        1 -1.04000000    5.66202   11.07739    7.82005    0    0    0
     272       91        2  0.52000000    6.52749   11.43251    7.61830    0    0    0
     273       91        2  0.52000000    5.81049   10.49010    8.56165    0    0    0
     274       92        1 -1.04000000   19.21380   11.96132   18.67536    0    0    0
     275       92        2  0.52000000   19.52385   11.99437   19.58014    0    0    0
     276       92        2  0.52000000   18.26235   12.04432   18.74451    0    0    0
     277       93        1 -1.04000000   16.77766    5.02970    5.31982    0    0    0
     278       93        2  0.52000000   17.64334    4.62887    5.24369    0    0    0
     279       93        2  0.52000000   16.57900    5.34143    4.43648    0    0    0
     280       94        1 -1.04000000   -0.16563   19.25581   16.75560    0    0    0
     281       94        2  0.52000000   -0.46200   18.37042   16.96559    0    0    0
     282       94        2  0.52000000    0.62763   19.37377   17.27881    0    0    0
     283       95        1 -1.04000000   19.35525    6.15806   16.96234    0    0    0
     284       95        2  0.52000000   18.93670    5.84250   17.76302    0    0    0
     285       95        2  0.52000000   18.70806    5.99944   16.27465    0    0    0
     286       96        1 -1.04000000    3.73219   12.23499    4.83982    0    0    0
     287       96        2  0.52000000    3.59170   11.53879    5.48122    0    0    0
     288       96        2  0.52000000    4.67611   12.22622    4.67896    0    0    0
     289       97        1 -1.04000000   11.65090    1.13269   10.11457    0    0    0
     290       97        2  0.52000000   11.85907    0.64393    9.31856    0    0    0
     291       97        2  0.52000000   12.49003    1.22338   10.56687    0    0    0
     292       98        1 -1.04000000    5.73358   16.11944    8.25953    0    0    0
     293       98        2  0.52000000    6.04394   16.58447    7.48283    0    0    0
     294       98        2  0.52000000    6.22248   15.29609    8.25764    0    0    0
     295       99        1 -1.04000000    8.22918   15.00789    0.31625    0    0    0
     296       99        2  0.52000000    7.96607   14.24439   -0.19725    0    0    0
     297       99        2  0.52000000    7.80475   15.74772   -0.11900    0    0    0
     298      100        1 -1.04000000   14.37630    7.97281    0.10131    0    0    0
     299      100        2  0.52000000   13.96441    8.63997   -0.44741    0    0    0
     300      100        2  0.52000000   13.65929    7.38722    0.34610    0    0    0
     301      101        1 -1.04000000   19.75432   14.19946   17.77096    0    0    0
     302      101        2  0.52000000   20.33918   13.48480   17.51987    0    0    0
     303      101        2  0.52000000   19.90650   14.31574   18.70918    0    0    0
     304      102        1 -1.04000000    9.32548   13.95602   10.78850    0    0    0
     305      102        2  0.52000000    9.23620   13.91753   11.74055    0    0    0
     306      102        2  0.52000000    8.43832   14.12645   10.47095    0    0    0
     307      103        1 -1.04000000   16.73074   10.04294    0.72026    0    0    0
     308      103        2  0.52000000   17.62415    9.71277    0.62725    0    0    0
     309      103        2  0.52000000   16.64511   10.24429    1.65249    0    0    0
     310      104        1 -1.04000000   18.31796   12.81308   12.87129    0    0    0
     311      104        2  0.52000000   17.99481   12.86793   13.77041    0    0    0
     312      104        2  0.52000000   17.68723   13.31899   12.35829    0    0    0
     313      105        1 -1.04000000    1.29753    5.78961   14.85923    0    0    0
     314      105        2  0.52000000    0.75259    6.42055   14.38932    0    0    0
     315      105        2  0.52000000    0.94988    5.78984   15.75145    0    0    0
     316      106        1 -1.04000000   11.76544   19.82491    4.74130    0    0    0
     317      106        2  0.52000000   11.72185   19.77875    5.69619    0    0    0
     318      106        2  0.52000000   12.51271   20.39634    4.56250    0    0    0
     319      107        1 -1.04000000    0.92010   14.29368    0.24488    0    0    0
     320      107        2  0.52000000    0.90503   14.30856   -0.71188    0    0    0
     321      107        2  0.52000000    1.17487   13.39776    0.46700    0    0    0
     322      108        1 -1.04000000   17.96392   17.34675   17.17626    0    0    0
     323      108        2  0.52000000   17.97912   17.16639   16.23653    0    0    0
     324      108        2  0.52000000   18.05696   16.48687   17.58721    0    0    0
     325      109        1 -1.04000000   15.81575   11.01462   10.34415    0    0    0
     326      109        2  0.52000000   15.73198   11.62148    9.60893    0    0    0
     327      109        2  0.52000000   16.45227   10.36390   10.04692    0    0    0
     328      110        1 -1.04000000    0.30336   18.06098   12.76156    0    0    0
     329      110        2  0.52000000   -0.60506   18.33408   12.63490    0    0    0
     330      110        2  0.52000000    0.30169   17.60493   13.60355    0    0    0
     331      111        1 -1.04000000   19.15378    4.73528   10.75735    0    0    0
     332      111        2  0.52000000   19.16445    4.72837   11.71427    0    0    0
     333      111        2  0.52000000   18.68177    5.53635   10.52838    0    0    0
     334      112        1 -1.04000000    5.90353   13.20353   13.68083    0    0    0
     335      112        2  0.52000000    6.58204   12.53395   13.76539    0    0    0
     336      112        2  0.52000000    5.51443   13.26252   14.55378    0    0    0
     337      113        1 -1.04000000   10.73131    0.19710    5.20386    0    0    0
     338      113        2  0.52000000   11.53822    0.53657    4.81720    0    0    0