Created by /global/cfs/cdirs/m5056/rsb/codes/ATLAS-toolkit/scripts/createLammpsInput.pl on Thu Apr  9 14:48:00 2026

         876 atoms
         564 bonds
         272 angles

           6 atom types
           2 bond types
           1 angle types

		   0.000000  20.249420 xlo xhi
		   0.000000  20.249420 ylo yhi
		   0.000000  20.249420 zlo zhi

Masses

    1 1.5999E+01 # OW     
    2 1.0080E+00 # HW     
    3 6.9410E+00 # Li     
    4 3.9948E+01 # K_     
    5 1.5999E+01 # O_3    
    6 1.0080E+00 # H_     

Atoms

       1        1        1 -1.04000000   15.85697    7.10646   10.34758    0    0    0
       2        1        2  0.52000000   15.36751    6.83625    9.57087    0    0    0
       3        1        2  0.52000000   16.77552    7.05729   10.08155    0    0    0
       4        2        1 -1.04000000    2.69660    4.76124    3.05952    0    0    0
       5        2        2  0.52000000    2.75853    5.69286    3.26951    0    0    0
       6        2        2  0.52000000    3.54487    4.54589    2.67096    0    0    0
       7        3        1 -1.04000000    9.38446   10.93752    8.02979    0    0    0
       8        3        2  0.52000000    8.91450   11.76274    8.14805    0    0    0
       9        3        2  0.52000000    8.70104   10.29974    7.82216    0    0    0
      10        4        1 -1.04000000    7.33494    9.11967    5.16155    0    0    0
      11        4        2  0.52000000    7.06096    9.20735    4.24881    0    0    0
      12        4        2  0.52000000    6.60410    8.67297    5.58965    0    0    0
      13        5        1 -1.04000000   10.83964   15.79131   16.71132    0    0    0
      14        5        2  0.52000000   10.99154   15.51901   17.61610    0    0    0
      15        5        2  0.52000000   11.16882   16.68968   16.67258    0    0    0
      16        6        1 -1.04000000    8.86549   -0.31617   -0.18587    0    0    0
      17        6        2  0.52000000    9.23682    0.47658   -0.57253    0    0    0
      18        6        2  0.52000000    8.89769   -0.16041    0.75840    0    0    0
      19        7        1 -1.04000000    6.61311   18.97985   19.05011    0    0    0
      20        7        2  0.52000000    7.28012   18.38812   19.39767    0    0    0
      21        7        2  0.52000000    7.10677   19.63202   18.55222    0    0    0
      22        8        1 -1.04000000    6.24980   -0.08767   19.28725    0    0    0
      23        8        2  0.52000000    6.16348   -0.51541   18.43553    0    0    0
      24        8        2  0.52000000    5.58672    0.60308   19.27722    0    0    0
      25        9        1 -1.04000000    9.61475   13.95015    5.04121    0    0    0
      26        9        2  0.52000000   10.08654   14.25014    4.26451    0    0    0
      27        9        2  0.52000000   10.29871   13.79972    5.69428    0    0    0
      28       10        1 -1.04000000    6.82761    0.34630   10.05439    0    0    0
      29       10        2  0.52000000    6.70234   -0.45606   10.56073    0    0    0
      30       10        2  0.52000000    7.47005    0.10976    9.38488    0    0    0
      31       11        1 -1.04000000    2.10110    6.64293   11.12198    0    0    0
      32       11        2  0.52000000    2.10556    6.97858   10.22579    0    0    0
      33       11        2  0.52000000    1.79335    7.37849   11.65223    0    0    0
      34       12        1 -1.04000000   16.69977   18.98792   10.75037    0    0    0
      35       12        2  0.52000000   16.66824   19.11492   11.69838    0    0    0
      36       12        2  0.52000000   17.63199   18.89715   10.55126    0    0    0
      37       13        1 -1.04000000    0.10330    0.31583    3.79461    0    0    0
      38       13        2  0.52000000   -0.42919   -0.42391    3.50291    0    0    0
      39       13        2  0.52000000    0.32589    0.10809    4.70248    0    0    0
      40       14        1 -1.04000000   13.82374   11.72519   12.78550    0    0    0
      41       14        2  0.52000000   13.88602   12.66204   12.60035    0    0    0
      42       14        2  0.52000000   14.29024   11.61278   13.61415    0    0    0
      43       15        1 -1.04000000   16.04329    7.73015    2.72088    0    0    0
      44       15        2  0.52000000   15.97464    7.59009    3.66508    0    0    0
      45       15        2  0.52000000   15.98207    8.67976    2.61404    0    0    0
      46       16        1 -1.04000000   12.68483    5.78024   14.92949    0    0    0
      47       16        2  0.52000000   13.33757    5.66348   15.61952    0    0    0
      48       16        2  0.52000000   12.97761    6.55628   14.45099    0    0    0
      49       17        1 -1.04000000   -0.32434    7.10190    1.19241    0    0    0
      50       17        2  0.52000000    0.33136    6.45484    1.45167    0    0    0
      51       17        2  0.52000000   -0.00702    7.44326    0.35592    0    0    0
      52       18        1 -1.04000000   19.96791   12.61368    8.95177    0    0    0
      53       18        2  0.52000000   19.54977   13.30457    8.43827    0    0    0
      54       18        2  0.52000000   20.48232   13.08176    9.60996    0    0    0
      55       19        1 -1.04000000   11.64879    4.16465   17.95366    0    0    0
      56       19        2  0.52000000   12.38129    4.16465   17.33780    0    0    0
      57       19        2  0.52000000   11.96991    3.67071   18.70854    0    0    0
      58       20        1 -1.04000000   18.28958   17.25355   15.93321    0    0    0
      59       20        2  0.52000000   17.59704   16.98361   15.33041    0    0    0
      60       20        2  0.52000000   18.11339   16.76284   16.73639    0    0    0
      61       21        1 -1.04000000    4.72116    5.26668    9.93892    0    0    0
      62       21        2  0.52000000    5.02448    4.58810    9.33612    0    0    0
      63       21        2  0.52000000    5.25436    5.14522   10.72497    0    0    0
      64       22        1 -1.04000000    0.67444    7.99193   18.21574    0    0    0
      65       22        2  0.52000000    0.75576    7.84913   17.27296    0    0    0
      66       22        2  0.52000000    1.56980    8.15894   18.51130    0    0    0
      67       23        1 -1.04000000   18.30551    5.20774   19.12693    0    0    0
      68       23        2  0.52000000   17.77010    5.36870   18.35022    0    0    0
      69       23        2  0.52000000   17.92439    4.42357   19.52285    0    0    0
      70       24        1 -1.04000000    2.95206    4.32332    5.78606    0    0    0
      71       24        2  0.52000000    2.93617    4.24455    6.73968    0    0    0
      72       24        2  0.52000000    3.11177    3.43213    5.47426    0    0    0
      73       25        1 -1.04000000    0.08527   -0.10335    0.63305    0    0    0
      74       25        2  0.52000000    0.54639   -0.35262    1.43373    0    0    0
      75       25        2  0.52000000   -0.63166    0.45597    0.93321    0    0    0
      76       26        1 -1.04000000    2.09056   15.31599   18.21107    0    0    0
      77       26        2  0.52000000    1.91549   15.27005   17.27135    0    0    0
      78       26        2  0.52000000    1.99396   14.41396   18.51758    0    0    0
      79       27        1 -1.04000000    6.96053   10.61184    5.01932    0    0    0
      80       27        2  0.52000000    6.56226   11.26991    5.58867    0    0    0
      81       27        2  0.52000000    7.47721   11.11825    4.39201    0    0    0
      82       28        1 -1.04000000   11.80344   16.24431    7.23298    0    0    0
      83       28        2  0.52000000   11.46002   15.49392    6.74839    0    0    0
      84       28        2  0.52000000   12.73654   16.26177    7.01864    0    0    0
      85       29        1 -1.04000000   12.23977   18.29896    4.92428    0    0    0
      86       29        2  0.52000000   11.42781   18.31334    5.43061    0    0    0
      87       29        2  0.52000000   12.33242   17.38770    4.64511    0    0    0
      88       30        1 -1.04000000   15.79005   11.67444    9.94969    0    0    0
      89       30        2  0.52000000   16.44676   12.04459    9.36014    0    0    0
      90       30        2  0.52000000   15.76320   12.28097   10.69018    0    0    0
      91       31        1 -1.04000000   14.95038    9.90547   13.62423    0    0    0
      92       31        2  0.52000000   14.51015    9.52864   14.38583    0    0    0
      93       31        2  0.52000000   15.53948   10.56589   13.98994    0    0    0
      94       32        1 -1.04000000   17.34098    8.86402    9.86640    0    0    0
      95       32        2  0.52000000   17.00081    8.81553   10.75959    0    0    0
      96       32        2  0.52000000   16.65822    9.32044    9.37401    0    0    0
      97       33        1 -1.04000000    0.05965   11.23155   16.30892    0    0    0
      98       33        2  0.52000000    0.61085   11.13798   15.53221    0    0    0
      99       33        2  0.52000000   -0.67050   10.63047   16.15887    0    0    0
     100       34        1 -1.04000000   16.78836    7.88064   18.69411    0    0    0
     101       34        2  0.52000000   17.00366    7.38731   19.48539    0    0    0
     102       34        2  0.52000000   17.20797    8.73205   18.82050    0    0    0
     103       35        1 -1.04000000    4.04830   16.69745   16.75765    0    0    0
     104       35        2  0.52000000    4.17801   16.71477   17.70566    0    0    0
     105       35        2  0.52000000    3.77369   17.58778   16.53668    0    0    0
     106       36        1 -1.04000000    1.13277    0.23094   17.28573    0    0    0
     107       36        2  0.52000000    0.24700   -0.11432   17.17588    0    0    0
     108       36        2  0.52000000    1.62023   -0.11662   16.53839    0    0    0
     109       37        1 -1.04000000   18.05440    1.27080    0.27624    0    0    0
     110       37        2  0.52000000   17.60480    0.43023    0.36081    0    0    0
     111       37        2  0.52000000   18.34080    1.29897   -0.63705    0    0    0
     112       38        1 -1.04000000   11.11819    2.70298   10.77547    0    0    0
     113       38        2  0.52000000   11.19649    2.78592   11.72565    0    0    0
     114       38        2  0.52000000   10.68532    3.51110   10.49888    0    0    0
     115       39        1 -1.04000000    0.35888    7.85040    0.03780    0    0    0
     116       39        2  0.52000000   -0.10385    8.06465   -0.77204    0    0    0
     117       39        2  0.52000000   -0.25503    8.08494    0.73424    0    0    0
     118       40        1 -1.04000000    5.26594   19.10646    0.26560    0    0    0
     119       40        2  0.52000000    4.46303   18.60585    0.40904    0    0    0
     120       40        2  0.52000000    5.27103   19.28769   -0.67464    0    0    0
     121       41        1 -1.04000000   17.36912    3.97209    8.87520    0    0    0
     122       41        2  0.52000000   17.05172    4.38924    9.67588    0    0    0
     123       41        2  0.52000000   16.57916    3.63866    8.44891    0    0    0
     124       42        1 -1.04000000   18.18857   17.84897    1.30698    0    0    0
     125       42        2  0.52000000   18.44715   18.59932    0.77222    0    0    0
     126       42        2  0.52000000   17.36429   17.55171    0.92081    0    0    0
     127       43        1 -1.04000000   13.12611   11.66952   16.16576    0    0    0
     128       43        2  0.52000000   13.16637   11.91322   15.24119    0    0    0
     129       43        2  0.52000000   12.70751   12.41727   16.59305    0    0    0
     130       44        1 -1.04000000   19.00787   15.09393   17.62090    0    0    0
     131       44        2  0.52000000   18.39226   15.39907   18.28705    0    0    0
     132       44        2  0.52000000   19.59987   14.50700   18.09205    0    0    0
     133       45        1 -1.04000000   -0.17722    0.31414    8.15003    0    0    0
     134       45        2  0.52000000   -0.24980   -0.02978    7.25992    0    0    0
     135       45        2  0.52000000    0.42701   -0.28437    8.59005    0    0    0
     136       46        1 -1.04000000    5.76302   18.28117   16.13186    0    0    0
     137       46        2  0.52000000    6.37050   17.74224   16.63819    0    0    0
     138       46        2  0.52000000    5.86648   17.97659   15.22994    0    0    0
     139       47        1 -1.04000000   16.32515   12.02834   20.21465    0    0    0
     140       47        2  0.52000000   16.25717   11.92648   19.26552    0    0    0
     141       47        2  0.52000000   15.41768   12.04517   20.51983    0    0    0
     142       48        1 -1.04000000    9.19335   19.76481    5.75525    0    0    0
     143       48        2  0.52000000    9.49434   20.59046    6.13415    0    0    0
     144       48        2  0.52000000    8.31231   19.64473    6.11061    0    0    0
     145       49        1 -1.04000000   20.29543    3.75381    6.93133    0    0    0
     146       49        2  0.52000000   19.97948    4.46064    6.36881    0    0    0
     147       49        2  0.52000000   19.72508    3.78555    7.69985    0    0    0
     148       50        1 -1.04000000    5.92454   13.92505   13.37589    0    0    0
     149       50        2  0.52000000    5.62301   14.66928   12.85526    0    0    0
     150       50        2  0.52000000    6.45246   13.40568   12.76886    0    0    0
     151       51        1 -1.04000000    5.31749   13.98098    5.77319    0    0    0
     152       51        2  0.52000000    4.99269   13.31838    6.38255    0    0    0
     153       51        2  0.52000000    4.68982   14.70064    5.84426    0    0    0
     154       52        1 -1.04000000    4.20636   17.68946    5.88345    0    0    0
     155       52        2  0.52000000    3.34523   17.69709    6.30086    0    0    0
     156       52        2  0.52000000    4.44841   18.61345    5.81568    0    0    0
     157       53        1 -1.04000000    2.27002   11.74609    0.87662    0    0    0
     158       53        2  0.52000000    2.41214   12.60638    1.27102    0    0    0
     159       53        2  0.52000000    1.31785   11.64753    0.85235    0    0    0
     160       54        1 -1.04000000   19.17425    4.88088   14.67129    0    0    0
     161       54        2  0.52000000   19.43129    5.60587   15.24064    0    0    0
     162       54        2  0.52000000   18.39446    4.51325   15.08807    0    0    0
     163       55        1 -1.04000000    6.81115    7.22983   15.74678    0    0    0
     164       55        2  0.52000000    7.70288    7.33286   16.07853    0    0    0
     165       55        2  0.52000000    6.48597    6.43731   16.17469    0    0    0
     166       56        1 -1.04000000   12.85986    1.65516   15.11852    0    0    0
     167       56        2  0.52000000   13.20708    2.36352   15.66028    0    0    0
     168       56        2  0.52000000   12.93306    1.98132   14.22120    0    0    0
     169       57        1 -1.04000000    6.76376    5.69858   19.07706    0    0    0
     170       57        2  0.52000000    7.38303    5.78686   18.35280    0    0    0
     171       57        2  0.52000000    6.85321    6.51456   19.57013    0    0    0
     172       58        1 -1.04000000   12.80409   12.33061    2.92987    0    0    0
     173       58        2  0.52000000   13.07599   11.97975    3.77770    0    0    0
     174       58        2  0.52000000   13.11992   11.68964    2.29243    0    0    0
     175       59        1 -1.04000000    6.22139    5.27423   14.16849    0    0    0
     176       59        2  0.52000000    6.41716    4.76533   13.38201    0    0    0
     177       59        2  0.52000000    5.36145    4.96044   14.44950    0    0    0
     178       60        1 -1.04000000    2.25558   17.71534    0.07906    0    0    0
     179       60        2  0.52000000    1.95815   18.41367    0.66191    0    0    0
     180       60        2  0.52000000    1.78627   17.87099   -0.74097    0    0    0
     181       61        1 -1.04000000    2.12898    4.88727   13.64892    0    0    0
     182       61        2  0.52000000    1.29614    5.30932   13.85891    0    0    0
     183       61        2  0.52000000    2.57488    4.80341   14.49217    0    0    0
     184       62        1 -1.04000000    4.22833    3.20714   -0.23992    0    0    0
     185       62        2  0.52000000    4.46994    2.79982    0.59168    0    0    0
     186       62        2  0.52000000    3.30173    2.99304   -0.35176    0    0    0
     187       63        1 -1.04000000   12.88068    5.77758   10.70185    0    0    0
     188       63        2  0.52000000   12.53741    5.79278   11.59504    0    0    0
     189       63        2  0.52000000   13.58192    6.42964   10.70311    0    0    0
     190       64        1 -1.04000000   14.26062    1.12575    8.26242    0    0    0
     191       64        2  0.52000000   14.26389    1.27333    7.31688    0    0    0
     192       64        2  0.52000000   13.47549    0.60092    8.42070    0    0    0
     193       65        1 -1.04000000    5.04829    8.72598    0.72580    0    0    0
     194       65        2  0.52000000    4.67236    8.62018    1.59949    0    0    0
     195       65        2  0.52000000    5.27936    9.65384    0.67470    0    0    0
     196       66        1 -1.04000000   16.12136    4.88884   15.35428    0    0    0
     197       66        2  0.52000000   16.63886    5.29356   14.65841    0    0    0
     198       66        2  0.52000000   15.23978    4.81760   14.98731    0    0    0
     199       67        1 -1.04000000    8.10797    7.62467   11.99158    0    0    0
     200       67        2  0.52000000    8.59292    8.36542   12.35486    0    0    0
     201       67        2  0.52000000    7.29911    8.00991   11.65356    0    0    0
     202       68        1 -1.04000000   14.76005   19.16251   13.73806    0    0    0
     203       68        2  0.52000000   15.52217   18.60878   13.56955    0    0    0
     204       68        2  0.52000000   14.71778   19.22871   14.69239    0    0    0
     205       69        1 -1.04000000    7.04071   15.35916    0.14815    0    0    0
     206       69        2  0.52000000    6.78887   14.56009    0.61066    0    0    0
     207       69        2  0.52000000    7.17043   15.08075   -0.75881    0    0    0
     208       70        1 -1.04000000   13.93646   13.70250   19.24507    0    0    0
     209       70        2  0.52000000   14.16270   13.65789   18.31627    0    0    0
     210       70        2  0.52000000   13.90085   14.63961   19.43867    0    0    0
     211       71        1 -1.04000000   19.90274    5.67440    4.19269    0    0    0
     212       71        2  0.52000000   19.73960    5.88111    3.27263    0    0    0
     213       71        2  0.52000000   20.35765    6.44449    4.53468    0    0    0
     214       72        1 -1.04000000   -0.00724   19.24814    9.30163    0    0    0
     215       72        2  0.52000000    0.65862   18.59104    9.09988    0    0    0
     216       72        2  0.52000000   -0.65138   19.16083    8.59849    0    0    0
     217       73        1 -1.04000000    0.73860    1.72400   12.91003    0    0    0
     218       73        2  0.52000000    0.82244    2.20499   13.73311    0    0    0
     219       73        2  0.52000000    1.43897    2.07101   12.35686    0    0    0
     220       74        1 -1.04000000   12.85120   20.19556    0.69632    0    0    0
     221       74        2  0.52000000   12.60817   20.27334    1.61868    0    0    0
     222       74        2  0.52000000   13.54063   19.53111    0.68500    0    0    0
     223       75        1 -1.04000000    6.79415   16.32977    8.03849    0    0    0
     224       75        2  0.52000000    7.47422   15.99267    8.62134    0    0    0
     225       75        2  0.52000000    6.73164   15.67757    7.34017    0    0    0
     226       76        1 -1.04000000    6.06344    7.78957   19.67705    0    0    0
     227       76        2  0.52000000    6.46348    8.62432   19.91996    0    0    0
     228       76        2  0.52000000    5.47308    7.58610   20.40300    0    0    0
     229       77        1 -1.04000000    1.97356   12.09280   13.37854    0    0    0
     230       77        2  0.52000000    2.73100   12.19394   12.80242    0    0    0
     231       77        2  0.52000000    1.29545   11.71325   12.81904    0    0    0
     232       78        1 -1.04000000   10.88672    0.18355    5.32570    0    0    0
     233       78        2  0.52000000   10.40385   -0.47490    4.82657    0    0    0
     234       78        2  0.52000000   11.70943    0.29135    4.84773    0    0    0
     235       79        1 -1.04000000    6.21774    2.78444   15.75767    0    0    0
     236       79        2  0.52000000    6.23029    2.78242   16.71459    0    0    0
     237       79        2  0.52000000    5.55197    3.43314   15.52774    0    0    0
     238       80        1 -1.04000000   12.36409   11.07487    6.12014    0    0    0
     239       80        2  0.52000000   11.94375   11.36354    5.31030    0    0    0
     240       80        2  0.52000000   11.69216   10.56160    6.56956    0    0    0
     241       81        1 -1.04000000   15.01357   16.69135    1.23907    0    0    0
     242       81        2  0.52000000   14.23758   17.11084    0.86796    0    0    0
     243       81        2  0.52000000   15.74885   17.19780    0.89296    0    0    0
     244       82        1 -1.04000000    4.20177    1.99054   17.33436    0    0    0
     245       82        2  0.52000000    3.25144    2.01578   17.22452    0    0    0
     246       82        2  0.52000000    4.54679    1.99368   16.44112    0    0    0
     247       83        1 -1.04000000    2.94859   16.36303    0.13479    0    0    0
     248       83        2  0.52000000    3.28037   15.60278    0.61206    0    0    0
     249       83        2  0.52000000    2.77104   16.03419   -0.74684    0    0    0
     250       84        1 -1.04000000   14.24895   13.73273   15.86146    0    0    0
     251       84        2  0.52000000   14.02300   14.57848   15.47480    0    0    0
     252       84        2  0.52000000   13.72805   13.68879   16.66375    0    0    0
     253       85        1 -1.04000000   -0.27534   14.24928   12.12103    0    0    0
     254       85        2  0.52000000    0.26631   14.31187   11.33455    0    0    0
     255       85        2  0.52000000    0.00903   13.43885   12.54442    0    0    0
     256       86        1 -1.04000000    5.79880    6.23577    1.23777    0    0    0
     257       86        2  0.52000000    5.79985    6.23166    0.28078    0    0    0
     258       86        2  0.52000000    6.40135    5.53257    1.48145    0    0    0
     259       87        1 -1.04000000   18.84413   11.65290   12.91152    0    0    0
     260       87        2  0.52000000   19.71151   11.98218   12.67682    0    0    0
     261       87        2  0.52000000   18.44436   12.36492   13.41166    0    0    0
     262       88        1 -1.04000000    6.76704   11.31357    1.00281    0    0    0
     263       88        2  0.52000000    6.83684   10.63003    1.66896    0    0    0
     264       88        2  0.52000000    7.39612   11.05640    0.32823    0    0    0
     265       89        1 -1.04000000    9.89554   10.33784   12.83400    0    0    0
     266       89        2  0.52000000   10.62731   10.18003   13.43020    0    0    0
     267       89        2  0.52000000    9.47715    9.48213   12.73579    0    0    0
     268       90        1 -1.04000000   16.67092   18.94698   17.20370    0    0    0
     269       90        2  0.52000000   16.93494   18.51074   16.39387    0    0    0
     270       90        2  0.52000000   17.39415   19.54228   17.40242    0    0    0
     271       91        1 -1.04000000    8.02254   13.64287   13.84332    0    0    0
     272       91        2  0.52000000    7.57600   14.41106   13.48789    0    0    0
     273       91        2  0.52000000    8.40146   13.94607   14.66880    0    0    0
     274       92        1 -1.04000000   12.14989   10.09968   12.34670    0    0    0
     275       92        2  0.52000000   12.36827    9.33666   11.81194    0    0    0
     276       92        2  0.52000000   11.48184   10.56366   11.84136    0    0    0
     277       93        1 -1.04000000   17.91781   10.76917    0.69576    0    0    0
     278       93        2  0.52000000   17.84909   10.55768    1.62657    0    0    0
     279       93        2  0.52000000   18.23310   11.67315    0.67767    0    0    0
     280       94        1 -1.04000000    9.08951   15.63796    9.11626    0    0    0
     281       94        2  0.52000000    8.33631   15.91632    8.59563    0    0    0
     282       94        2  0.52000000    9.57418   16.44573    9.28811    0    0    0
     283       95        1 -1.04000000    8.99640    4.94009    5.38601    0    0    0
     284       95        2  0.52000000    9.41365    4.40168    4.71380    0    0    0
     285       95        2  0.52000000    8.58995    5.65823    4.90019    0    0    0
     286       96        1 -1.04000000   10.70404   18.21428   14.13818    0    0    0
     287       96        2  0.52000000   10.66288   17.49957   13.50308    0    0    0
     288       96        2  0.52000000   11.63308   18.28615   14.35873    0    0    0
     289       97        1 -1.04000000   18.95486    8.85325   12.64080    0    0    0
     290       97        2  0.52000000   18.61656    8.50121   13.46388    0    0    0
     291       97        2  0.52000000   19.42858    9.64554   12.89532    0    0    0
     292       98        1 -1.04000000   11.77620    7.23706    8.78479    0    0    0
     293       98        2  0.52000000   11.61683    6.93266    9.67797    0    0    0
     294       98        2  0.52000000   12.60697    6.83028    8.53724    0    0    0
     295       99        1 -1.04000000    3.05742    8.75175    3.70389    0    0    0
     296       99        2  0.52000000    3.71278    9.11354    4.30009    0    0    0
     297       99        2  0.52000000    2.22980    9.13470    3.99601    0    0    0
     298      100        1 -1.04000000   12.34435    0.81656    0.98059    0    0    0
     299      100        2  0.52000000   11.47601    0.45125    0.81209    0    0    0
     300      100        2  0.52000000   12.17964    1.73220    1.20732    0    0    0
     301      101        1 -1.04000000    0.75121   10.14026   11.73348    0    0    0
     302      101        2  0.52000000    1.67963   10.34907   11.83491    0    0    0
     303      101        2  0.52000000    0.56915    9.51067   12.43162    0    0    0
     304      102        1 -1.04000000    6.30215    1.87411    1.21321    0    0    0
     305      102        2  0.52000000    6.10283    1.66669    0.30047    0    0    0
     306      102        2  0.52000000    5.59502    2.45919    1.48631    0    0    0
     307      103        1 -1.04000000    7.70116    2.18506   17.82957    0    0    0
     308      103        2  0.52000000    7.66303    1.52306   18.51960    0    0    0
     309      103        2  0.52000000    8.63581    2.29188   17.65083    0    0    0
     310      104        1 -1.04000000    2.12884   18.81460   18.31879    0    0    0
     311      104        2  0.52000000    2.16505   18.51299   17.41129    0    0    0
     312      104        2  0.52000000    1.70611   19.67241   18.26992    0    0    0
     313      105        1 -1.04000000   16.21992   16.70951   10.85911    0    0    0
     314      105        2  0.52000000   16.18663   17.03558   11.75823    0    0    0
     315      105        2  0.52000000   15.59345   17.25491   10.38267    0    0    0
     316      106        1 -1.04000000   17.91731   16.37872    4.04834    0    0    0
     317      106        2  0.52000000   18.29042   15.77437    4.68975    0    0    0
     318      106        2  0.52000000   17.79227   15.84691    3.26191    0    0    0
     319      107        1 -1.04000000    8.34727   16.94728    1.17096    0    0    0
     320      107        2  0.52000000    8.03114   17.72753    0.71586    0    0    0
     321      107        2  0.52000000    7.62159   16.32519    1.11318    0    0    0
     322      108        1 -1.04000000   14.34673   15.94824   14.17233    0    0    0
     323      108        2  0.52000000   13.70389   15.27928   13.93763    0    0    0
     324      108        2  0.52000000   13.94938   16.77247   13.89004    0    0    0
     325      109        1 -1.04000000   10.94939    2.17126   18.65257    0    0    0
     326      109        2  0.52000000   10.29197    2.01728   19.33075    0    0    0
     327      109        2  0.52000000   11.75864    1.81145   19.01668    0    0    0
     328      110        1 -1.04000000   14.17145   12.67387    7.12979    0    0    0
     329      110        2  0.52000000   14.59421   13.48135    6.83808    0    0    0
     330      110        2  0.52000000   13.23434   12.84478    7.03213    0    0    0
     331      111        1 -1.04000000    6.88707    6.64432    5.88449    0    0    0
     332      111        2  0.52000000    6.36802    7.30199    6.34700    0    0    0
     333      111        2  0.52000000    7.74491    7.05369    5.76850    0    0    0
     334      112        1 -1.04000000    2.90658    0.19068    7.67210    0    0    0
     335      112        2  0.52000000    2.86176    0.51537    8.57122    0    0    0
     336      112        2  0.52000000    3.23165   -0.70604    7.75668    0    0    0
     337      113        1 -1.04000000    2.77913    2.26106   13.81115    0    0    0
     338      113        2  0.52000000    3.25246    2.38081   14.63424    0    0    0