Created by /global/cfs/cdirs/m5056/rsb/codes/ATLAS-toolkit/scripts/createLammpsInput.pl on Thu Apr  9 14:48:02 2026

         891 atoms
         574 bonds
         277 angles

           5 atom types
           2 bond types
           1 angle types

		   0.000000  20.249350 xlo xhi
		   0.000000  20.249350 ylo yhi
		   0.000000  20.249350 zlo zhi

Masses

    1 1.5999E+01 # OW     
    2 1.0080E+00 # HW     
    3 6.9410E+00 # Li     
    4 1.5999E+01 # O_3    
    5 1.0080E+00 # H_     

Atoms

       1        1        1 -1.04000000   13.03973   -0.29027   15.25840    0    0    0
       2        1        2  0.52000000   13.08576   -0.34551   14.30410    0    0    0
       3        1        2  0.52000000   12.87450    0.63577   15.43750    0    0    0
       4        2        1 -1.04000000    7.28891   15.12004   12.23393    0    0    0
       5        2        2  0.52000000    7.16777   15.31626   11.30513    0    0    0
       6        2        2  0.52000000    6.54333   14.56370   12.46093    0    0    0
       7        3        1 -1.04000000   12.18200    3.81801    4.29387    0    0    0
       8        3        2  0.52000000   12.57518    4.34433    3.59800    0    0    0
       9        3        2  0.52000000   11.24282    3.83765    4.10813    0    0    0
      10        4        1 -1.04000000    8.95565   15.37380   12.89554    0    0    0
      11        4        2  0.52000000    9.40153   14.67938   12.41095    0    0    0
      12        4        2  0.52000000    8.64282   14.94682   13.69351    0    0    0
      13        5        1 -1.04000000    8.14719    5.99129   13.63825    0    0    0
      14        5        2  0.52000000    8.41969    6.54720   14.36802    0    0    0
      15        5        2  0.52000000    7.43312    5.46151   13.99372    0    0    0
      16        6        1 -1.04000000    9.28188    2.21431    6.16497    0    0    0
      17        6        2  0.52000000    9.35594    1.33531    5.79387    0    0    0
      18        6        2  0.52000000    8.36217    2.45039    6.04116    0    0    0
      19        7        1 -1.04000000   16.76311   12.95740    2.69231    0    0    0
      20        7        2  0.52000000   16.88480   13.73684    3.23408    0    0    0
      21        7        2  0.52000000   17.35209   12.30575    3.07361    0    0    0
      22        8        1 -1.04000000   20.02960    3.80804   16.66106    0    0    0
      23        8        2  0.52000000   19.32113    3.75781   17.30247    0    0    0
      24        8        2  0.52000000   20.64927    4.43415   17.03646    0    0    0
      25        9        1 -1.04000000   12.15469    7.86526   16.33244    0    0    0
      26        9        2  0.52000000   12.48546    7.74634   15.44233    0    0    0
      27        9        2  0.52000000   11.35986    8.38840   16.22522    0    0    0
      28       10        1 -1.04000000   12.10079    4.64803   10.86377    0    0    0
      29       10        2  0.52000000   11.94991    4.90238   11.77393    0    0    0
      30       10        2  0.52000000   11.94930    5.44959   10.36230    0    0    0
      31       11        1 -1.04000000    4.30821   19.01364    9.76036    0    0    0
      32       11        2  0.52000000    4.10407   18.34534   10.41425    0    0    0
      33       11        2  0.52000000    3.58773   19.64102    9.82539    0    0    0
      34       12        1 -1.04000000    3.17192    7.31900   17.14588    0    0    0
      35       12        2  0.52000000    3.58449    6.59456   16.67598    0    0    0
      36       12        2  0.52000000    2.24359    7.08644   17.17814    0    0    0
      37       13        1 -1.04000000    1.74380   10.70521    2.00760    0    0    0
      38       13        2  0.52000000    2.68045   10.67203    2.20106    0    0    0
      39       13        2  0.52000000    1.57575   11.62277    1.79133    0    0    0
      40       14        1 -1.04000000    1.71485   10.82917   10.79480    0    0    0
      41       14        2  0.52000000    2.21246   10.46084   11.52457    0    0    0
      42       14        2  0.52000000    2.07269   11.70999   10.68063    0    0    0
      43       15        1 -1.04000000    5.17941    4.99577   15.65302    0    0    0
      44       15        2  0.52000000    4.24418    4.89609   15.82985    0    0    0
      45       15        2  0.52000000    5.57641    5.10814   16.51713    0    0    0
      46       16        1 -1.04000000    1.82148   18.66777   15.10176    0    0    0
      47       16        2  0.52000000    1.72561   19.53089   15.50386    0    0    0
      48       16        2  0.52000000    2.45291   18.80134   14.39438    0    0    0
      49       17        1 -1.04000000   15.21551   -0.21584    0.75593    0    0    0
      50       17        2  0.52000000   14.71842   -0.51369    1.51753    0    0    0
      51       17        2  0.52000000   15.06608    0.72953    0.72654    0    0    0
      52       18        1 -1.04000000   13.06679   10.23603    7.30403    0    0    0
      53       18        2  0.52000000   12.96791   10.48009    6.38397    0    0    0
      54       18        2  0.52000000   12.96530    9.28389    7.31200    0    0    0
      55       19        1 -1.04000000   18.68387    1.80031    7.88691    0    0    0
      56       19        2  0.52000000   18.77326    2.37286    8.64851    0    0    0
      57       19        2  0.52000000   19.54286    1.82683    7.46458    0    0    0
      58       20        1 -1.04000000   17.16074   12.29793   17.80506    0    0    0
      59       20        2  0.52000000   17.21283   12.11593   18.74315    0    0    0
      60       20        2  0.52000000   16.62643   11.58614   17.45179    0    0    0
      61       21        1 -1.04000000   10.31720    2.21219   12.08344    0    0    0
      62       21        2  0.52000000    9.47248    2.52437   11.75965    0    0    0
      63       21        2  0.52000000   10.21032    1.26345   12.15691    0    0    0
      64       22        1 -1.04000000    8.27603    0.22698   14.84224    0    0    0
      65       22        2  0.52000000    8.11427   -0.70107   14.67374    0    0    0
      66       22        2  0.52000000    7.60970    0.47409   15.48401    0    0    0
      67       23        1 -1.04000000   20.27546    9.90790   17.26123    0    0    0
      68       23        2  0.52000000   19.81146   10.73970   17.16822    0    0    0
      69       23        2  0.52000000   19.91308    9.35240   16.57055    0    0    0
      70       24        1 -1.04000000   16.23882    2.28133   14.12813    0    0    0
      71       24        2  0.52000000   16.46926    1.38707   13.87704    0    0    0
      72       24        2  0.52000000   15.29191    2.33159   13.99482    0    0    0
      73       25        1 -1.04000000   14.26615    2.13553   10.74821    0    0    0
      74       25        2  0.52000000   13.56676    2.62500   11.18080    0    0    0
      75       25        2  0.52000000   14.16709    1.23947   11.07099    0    0    0
      76       26        1 -1.04000000   19.65355    4.82134    2.97444    0    0    0
      77       26        2  0.52000000   19.88001    5.58689    3.50216    0    0    0
      78       26        2  0.52000000   20.46644    4.59177    2.52340    0    0    0
      79       27        1 -1.04000000   14.24208    5.04280    5.69641    0    0    0
      80       27        2  0.52000000   13.48495    4.46140    5.76412    0    0    0
      81       27        2  0.52000000   14.27297    5.49580    6.53947    0    0    0
      82       28        1 -1.04000000    4.06500   11.26941   11.27531    0    0    0
      83       28        2  0.52000000    4.06078   10.31781   11.37674    0    0    0
      84       28        2  0.52000000    3.87422   11.41277   10.34796    0    0    0
      85       29        1 -1.04000000   15.96991   16.37826    5.90717    0    0    0
      86       29        2  0.52000000   16.25428   15.65815    5.34465    0    0    0
      87       29        2  0.52000000   15.77581   15.96359    6.74818    0    0    0
      88       30        1 -1.04000000    0.77136   17.09376    4.30255    0    0    0
      89       30        2  0.52000000    1.72769   17.06835    4.27714    0    0    0
      90       30        2  0.52000000    0.50095   16.83789    3.42031    0    0    0
      91       31        1 -1.04000000    2.63912    8.99391    5.14944    0    0    0
      92       31        2  0.52000000    2.99408    8.44109    4.45356    0    0    0
      93       31        2  0.52000000    3.36680    9.56499    5.39700    0    0    0
      94       32        1 -1.04000000    2.89063   17.13835   11.34857    0    0    0
      95       32        2  0.52000000    3.75329   17.19951   10.93880    0    0    0
      96       32        2  0.52000000    2.35608   16.66213   10.71264    0    0    0
      97       33        1 -1.04000000   18.74503   13.83501    5.75430    0    0    0
      98       33        2  0.52000000   19.61665   14.17476    5.55255    0    0    0
      99       33        2  0.52000000   18.63832   13.99023    6.69315    0    0    0
     100       34        1 -1.04000000   -0.28780   11.99534    8.73590    0    0    0
     101       34        2  0.52000000    0.25698   12.73820    8.99515    0    0    0
     102       34        2  0.52000000    0.03083   11.26646    9.26895    0    0    0
     103       35        1 -1.04000000   12.70324   14.79179    0.14555    0    0    0
     104       35        2  0.52000000   13.00867   15.65326    0.42917    0    0    0
     105       35        2  0.52000000   13.28810   14.55495   -0.57472    0    0    0
     106       36        1 -1.04000000   10.26371    3.72355   18.08144    0    0    0
     107       36        2  0.52000000   10.30915    4.65612   18.29143    0    0    0
     108       36        2  0.52000000    9.42713    3.62033   17.62712    0    0    0
     109       37        1 -1.04000000   10.84006   19.26156   10.24209    0    0    0
     110       37        2  0.52000000   11.02751   19.36504    9.30935    0    0    0
     111       37        2  0.52000000   11.13243   18.37340   10.44856    0    0    0
     112       38        1 -1.04000000    6.31055    4.02449    1.23572    0    0    0
     113       38        2  0.52000000    6.30336    3.87704    0.29017    0    0    0
     114       38        2  0.52000000    5.38609    4.09847    1.47411    0    0    0
     115       39        1 -1.04000000   12.11552   10.72903   19.25658    0    0    0
     116       39        2  0.52000000   12.63944   11.43035   18.86991    0    0    0
     117       39        2  0.52000000   11.24504   10.84062   18.87351    0    0    0
     118       40        1 -1.04000000   12.04478   10.21521    2.67707    0    0    0
     119       40        2  0.52000000   11.55633   10.44137    3.46835    0    0    0
     120       40        2  0.52000000   12.39890    9.34342    2.85458    0    0    0
     121       41        1 -1.04000000   12.90901   17.96400   15.37819    0    0    0
     122       41        2  0.52000000   12.36097   17.75594   14.62174    0    0    0
     123       41        2  0.52000000   13.73002   18.28006   15.00007    0    0    0
     124       42        1 -1.04000000    0.88604    3.10996    2.64290    0    0    0
     125       42        2  0.52000000    1.44663    3.58983    3.25225    0    0    0
     126       42        2  0.52000000    0.66733    2.30021    3.10485    0    0    0
     127       43        1 -1.04000000    4.13224    5.31848    2.18353    0    0    0
     128       43        2  0.52000000    4.04223    5.18099    1.24075    0    0    0
     129       43        2  0.52000000    3.82553    4.50053    2.57572    0    0    0
     130       44        1 -1.04000000   15.96485    8.70916    0.74159    0    0    0
     131       44        2  0.52000000   15.86012    8.66400    1.69177    0    0    0
     132       44        2  0.52000000   16.17503    9.62684    0.56665    0    0    0
     133       45        1 -1.04000000    7.22545   13.77271    9.22386    0    0    0
     134       45        2  0.52000000    6.87484   14.63805    9.43385    0    0    0
     135       45        2  0.52000000    6.89971   13.58924    8.34229    0    0    0
     136       46        1 -1.04000000   11.10157   18.70497   18.23504    0    0    0
     137       46        2  0.52000000   10.55768   18.66641   17.44857    0    0    0
     138       46        2  0.52000000   11.34075   19.62861   18.31639    0    0    0
     139       47        1 -1.04000000    9.79280   12.94415   19.32642    0    0    0
     140       47        2  0.52000000   10.32140   13.70661   19.09172    0    0    0
     141       47        2  0.52000000    9.88579   12.34925   18.58186    0    0    0
     142       48        1 -1.04000000   14.77327   18.99590    1.68192    0    0    0
     143       48        2  0.52000000   15.32939   18.29125    2.01366    0    0    0
     144       48        2  0.52000000   14.89734   19.71285    2.30443    0    0    0
     145       49        1 -1.04000000   19.17287   11.03395    7.34866    0    0    0
     146       49        2  0.52000000   18.63970   11.68546    6.89356    0    0    0
     147       49        2  0.52000000   19.18743   10.28058    6.75778    0    0    0
     148       50        1 -1.04000000    8.21415    3.31291    4.90604    0    0    0
     149       50        2  0.52000000    7.84829    3.08926    5.76159    0    0    0
     150       50        2  0.52000000    7.93756    2.59783    4.33237    0    0    0
     151       51        1 -1.04000000   18.74353   18.99315   -0.29458    0    0    0
     152       51        2  0.52000000   18.75665   19.58588    0.45665    0    0    0
     153       51        2  0.52000000   19.49982   18.42097   -0.16207    0    0    0
     154       52        1 -1.04000000   18.27230   18.10204   14.73915    0    0    0
     155       52        2  0.52000000   18.40694   17.75204   15.61961    0    0    0
     156       52        2  0.52000000   17.32076   18.14592   14.64124    0    0    0
     157       53        1 -1.04000000    2.09177    1.16869   16.34018    0    0    0
     158       53        2  0.52000000    1.90908    1.59761   15.50442    0    0    0
     159       53        2  0.52000000    1.99915    0.23370   16.15539    0    0    0
     160       54        1 -1.04000000    6.11717   18.97201   16.62839    0    0    0
     161       54        2  0.52000000    6.60113   19.33688   17.36901    0    0    0
     162       54        2  0.52000000    5.28171   18.69111   17.00260    0    0    0
     163       55        1 -1.04000000    4.15463    1.05595    9.64565    0    0    0
     164       55        2  0.52000000    3.42596    1.52840   10.04775    0    0    0
     165       55        2  0.52000000    4.41941    0.41565   10.30659    0    0    0
     166       56        1 -1.04000000    4.03505    7.79374   -0.32989    0    0    0
     167       56        2  0.52000000    3.60844    7.52775    0.48442    0    0    0
     168       56        2  0.52000000    4.35651    8.67852   -0.15453    0    0    0
     169       57        1 -1.04000000    7.23561    8.74423   16.17797    0    0    0
     170       57        2  0.52000000    7.08732    8.84801   15.23824    0    0    0
     171       57        2  0.52000000    6.67707    9.40776   16.58379    0    0    0
     172       58        1 -1.04000000    8.79671   11.26914    3.80292    0    0    0
     173       58        2  0.52000000    9.38682   11.40736    4.54354    0    0    0
     174       58        2  0.52000000    8.81647   10.32350    3.65354    0    0    0
     175       59        1 -1.04000000    5.86267   12.71341    4.22718    0    0    0
     176       59        2  0.52000000    5.50009   13.02938    3.39980    0    0    0
     177       59        2  0.52000000    6.63724   13.25721    4.37302    0    0    0
     178       60        1 -1.04000000   18.86851   10.83203    3.67274    0    0    0
     179       60        2  0.52000000   19.30366   10.41014    4.41335    0    0    0
     180       60        2  0.52000000   18.82783   11.75783    3.91390    0    0    0
     181       61        1 -1.04000000   16.78470   11.19225    7.73678    0    0    0
     182       61        2  0.52000000   16.74189   11.26025    8.69040    0    0    0
     183       61        2  0.52000000   17.47342   10.54750    7.57282    0    0    0
     184       62        1 -1.04000000    9.86354   15.93092    7.64054    0    0    0
     185       62        2  0.52000000   10.55835   15.46276    8.10305    0    0    0
     186       62        2  0.52000000    9.57811   16.60633    8.25640    0    0    0
     187       63        1 -1.04000000    4.33811    7.15917   10.11380    0    0    0
     188       63        2  0.52000000    4.17477    6.62447    9.33710    0    0    0
     189       63        2  0.52000000    3.48712    7.21635   10.54910    0    0    0
     190       64        1 -1.04000000   13.63611    7.00425   13.85798    0    0    0
     191       64        2  0.52000000   13.98143    7.50234   14.59859    0    0    0
     192       64        2  0.52000000   14.38246    6.49341   13.54343    0    0    0
     193       65        1 -1.04000000    5.03486   14.94838    6.38564    0    0    0
     194       65        2  0.52000000    4.51804   14.42928    5.76978    0    0    0
     195       65        2  0.52000000    5.44710   15.62234    5.84458    0    0    0
     196       66        1 -1.04000000    9.64870   17.15750   19.06620    0    0    0
     197       66        2  0.52000000   10.07736   17.01612   18.22234    0    0    0
     198       66        2  0.52000000   10.27394   16.82637   19.71146    0    0    0
     199       67        1 -1.04000000   18.77688   14.21818    1.23498    0    0    0
     200       67        2  0.52000000   18.66002   14.05884    0.29860    0    0    0
     201       67        2  0.52000000   19.56310   13.72298    1.46642    0    0    0
     202       68        1 -1.04000000    4.01237   19.00433   -0.39042    0    0    0
     203       68        2  0.52000000    4.59764   19.45375    0.21894    0    0    0
     204       68        2  0.52000000    3.38998   18.54192    0.17149    0    0    0
     205       69        1 -1.04000000   17.78670    9.74846   13.20936    0    0    0
     206       69        2  0.52000000   17.84822    9.81248   12.25649    0    0    0
     207       69        2  0.52000000   18.36507   10.43907   13.53414    0    0    0
     208       70        1 -1.04000000    1.96537   17.93825    6.61583    0    0    0
     209       70        2  0.52000000    2.73823   18.23950    7.09310    0    0    0
     210       70        2  0.52000000    1.29640   17.82226    7.29108    0    0    0
     211       71        1 -1.04000000   19.30606   16.17089   10.17242    0    0    0
     212       71        2  0.52000000   18.49303   16.58289    9.88072    0    0    0
     213       71        2  0.52000000   19.20091   15.24623    9.94686    0    0    0
     214       72        1 -1.04000000    5.94765   14.23643   19.30653    0    0    0
     215       72        2  0.52000000    5.99651   14.47855   18.38196    0    0    0
     216       72        2  0.52000000    6.05584   13.28501   19.31151    0    0    0
     217       73        1 -1.04000000   15.89273    7.26871    8.26247    0    0    0
     218       73        2  0.52000000   16.12817    6.35505    8.42263    0    0    0
     219       73        2  0.52000000   15.97910    7.37624    7.31490    0    0    0
     220       74        1 -1.04000000   13.75647   15.10588    3.71350    0    0    0
     221       74        2  0.52000000   14.44990   15.62867    4.11560    0    0    0
     222       74        2  0.52000000   13.79363   14.26545    4.17091    0    0    0
     223       75        1 -1.04000000    5.83141    9.18684    7.70122    0    0    0
     224       75        2  0.52000000    6.16338    9.56439    8.51554    0    0    0
     225       75        2  0.52000000    6.00521    8.24876    7.78324    0    0    0
     226       76        1 -1.04000000    8.15136   -0.35116    1.07985    0    0    0
     227       76        2  0.52000000    8.15481    0.42800    1.63549    0    0    0
     228       76        2  0.52000000    7.69383   -0.07684    0.28466    0    0    0
     229       77        1 -1.04000000   11.85124   15.05566    7.35689    0    0    0
     230       77        2  0.52000000   12.77413   15.02298    7.10580    0    0    0
     231       77        2  0.52000000   11.37463   14.92136    6.53730    0    0    0
     232       78        1 -1.04000000   -0.15256   11.01662    3.64076    0    0    0
     233       78        2  0.52000000   -0.44264   11.48648    4.42239    0    0    0
     234       78        2  0.52000000    0.59520   10.49690    3.93685    0    0    0
     235       79        1 -1.04000000   11.03255   16.93686    3.38413    0    0    0
     236       79        2  0.52000000   11.62072   17.44033    2.82161    0    0    0
     237       79        2  0.52000000   10.34673   16.62281    2.79426    0    0    0
     238       80        1 -1.04000000    8.89348    7.31551    5.20423    0    0    0
     239       80        2  0.52000000    8.94657    7.22418    4.25308    0    0    0
     240       80        2  0.52000000    9.15995    6.46031    5.54270    0    0    0
     241       81        1 -1.04000000   15.10009    4.64907   17.86061    0    0    0
     242       81        2  0.52000000   14.43090    4.85025   18.51450    0    0    0
     243       81        2  0.52000000   15.46901    5.50069   17.62489    0    0    0
     244       82        1 -1.04000000    6.92367    2.32510   10.79730    0    0    0
     245       82        2  0.52000000    6.98358    2.22805   11.74748    0    0    0
     246       82        2  0.52000000    7.09275    1.44685   10.45522    0    0    0
     247       83        1 -1.04000000    0.84729   18.21063   12.29141    0    0    0
     248       83        2  0.52000000    0.56125   18.18014   11.37867    0    0    0
     249       83        2  0.52000000    1.59146   17.60924   12.32992    0    0    0
     250       84        1 -1.04000000    8.99357    4.25225    8.70179    0    0    0
     251       84        2  0.52000000    9.27766    4.41571    9.60091    0    0    0
     252       84        2  0.52000000    8.72877    3.33204    8.69730    0    0    0
     253       85        1 -1.04000000    8.99162   13.69256    2.75914    0    0    0
     254       85        2  0.52000000    9.12246   13.69025    3.70715    0    0    0
     255       85        2  0.52000000    8.88592   14.61719    2.53371    0    0    0
     256       86        1 -1.04000000    7.72564   18.27116    9.93837    0    0    0
     257       86        2  0.52000000    8.67288   18.39764    9.98917    0    0    0
     258       86        2  0.52000000    7.60148   17.33120   10.07246    0    0    0
     259       87        1 -1.04000000    6.11972    7.23532   10.28792    0    0    0
     260       87        2  0.52000000    6.36425    7.27017    9.36334    0    0    0
     261       87        2  0.52000000    5.51604    6.49451   10.34874    0    0    0
     262       88        1 -1.04000000   13.68481    6.95963    2.22721    0    0    0
     263       88        2  0.52000000   13.72213    6.95192    1.27097    0    0    0
     264       88        2  0.52000000   14.59306    7.08845    2.50181    0    0    0
     265       89        1 -1.04000000    9.89471    6.64167   17.88547    0    0    0
     266       89        2  0.52000000    9.32400    7.36481   18.14473    0    0    0
     267       89        2  0.52000000   10.78129    6.99352   17.96979    0    0    0
     268       90        1 -1.04000000   12.69181   14.20067    9.13173    0    0    0
     269       90        2  0.52000000   12.92569   13.29308    9.32518    0    0    0
     270       90        2  0.52000000   13.38250   14.50625    8.54309    0    0    0
     271       91        1 -1.04000000    3.81882    2.97566   17.65477    0    0    0
     272       91        2  0.52000000    3.52874    3.44552   18.43639    0    0    0
     273       91        2  0.52000000    4.65243    2.57883   17.90884    0    0    0
     274       92        1 -1.04000000   10.29609   12.75163    7.94302    0    0    0
     275       92        2  0.52000000    9.82300   12.92172    8.75733    0    0    0
     276       92        2  0.52000000    9.88091   13.32664    7.29965    0    0    0
     277       93        1 -1.04000000    4.07133   16.19263    1.66772    0    0    0
     278       93        2  0.52000000    4.67881   15.65370    2.17405    0    0    0
     279       93        2  0.52000000    3.24986   16.15367    2.15823    0    0    0
     280       94        1 -1.04000000   10.68574   19.05862    2.77548    0    0    0
     281       94        2  0.52000000   10.70717   18.80434    3.69783    0    0    0
     282       94        2  0.52000000   11.60709   19.13703    2.52668    0    0    0
     283       95        1 -1.04000000   -0.30752   17.99194    1.75923    0    0    0
     284       95        2  0.52000000    0.41295   17.36409    1.81003    0    0    0
     285       95        2  0.52000000   -0.10544   18.64398    2.43074    0    0    0
     286       96        1 -1.04000000   11.19392    5.78751    9.26428    0    0    0
     287       96        2  0.52000000   10.52236    6.45023    9.42444    0    0    0
     288       96        2  0.52000000   11.28373    5.76226    8.31127    0    0    0
     289       97        1 -1.04000000   11.79391   16.00153   15.66815    0    0    0
     290       97        2  0.52000000   11.57514   15.56504   16.49124    0    0    0
     291       97        2  0.52000000   12.63095   16.43343   15.84062    0    0    0
     292       98        1 -1.04000000   11.17457    5.73288    2.77468    0    0    0
     293       98        2  0.52000000   10.42075    6.28057    2.55643    0    0    0
     294       98        2  0.52000000   11.40468    5.98655    3.66890    0    0    0
     295       99        1 -1.04000000    4.19027    9.30725   10.85170    0    0    0
     296       99        2  0.52000000    4.36557    8.85157   11.67478    0    0    0
     297       99        2  0.52000000    3.44416    8.84118   10.47352    0    0    0
     298      100        1 -1.04000000    8.98015    0.25827   12.29241    0    0    0
     299      100        2  0.52000000    9.25874    0.41530   11.39042    0    0    0
     300      100        2  0.52000000    8.76112   -0.67358   12.31717    0    0    0
     301      101        1 -1.04000000    6.84521    2.77592    7.28005    0    0    0
     302      101        2  0.52000000    7.47987    3.48498    7.38148    0    0    0
     303      101        2  0.52000000    6.67492    2.73911    6.33847    0    0    0
     304      102        1 -1.04000000   19.03324   14.62956   13.88053    0    0    0
     305      102        2  0.52000000   19.38283   15.02013   14.68120    0    0    0
     306      102        2  0.52000000   18.58393   15.35030   13.43827    0    0    0
     307      103        1 -1.04000000    3.75721    8.14044   18.27190    0    0    0
     308      103        2  0.52000000    3.69850    8.24791   17.32277    0    0    0
     309      103        2  0.52000000    4.54429    7.61164   18.40533    0    0    0
     310      104        1 -1.04000000    0.15609    3.34343    9.10145    0    0    0
     311      104        2  0.52000000    0.61414    2.55543    8.80975    0    0    0
     312      104        2  0.52000000   -0.77023    3.10114    9.08880    0    0    0
     313      105        1 -1.04000000    1.91838   18.64303    9.13606    0    0    0
     314      105        2  0.52000000    1.68587   19.01229    8.28433    0    0    0
     315      105        2  0.52000000    2.39575   19.34468    9.57961    0    0    0
     316      106        1 -1.04000000    7.91971   18.99863    6.61770    0    0    0
     317      106        2  0.52000000    8.78088   18.99863    7.03511    0    0    0
     318      106        2  0.52000000    7.29942   19.00274    7.34719    0    0    0
     319      107        1 -1.04000000    1.99333   18.74536   19.29617    0    0    0
     320      107        2  0.52000000    2.55207   18.72557   18.51946    0    0    0
     321      107        2  0.52000000    1.45461   19.52907   19.18437    0    0    0
     322      108        1 -1.04000000   14.61775   -0.07429    5.96885    0    0    0
     323      108        2  0.52000000   15.22331    0.18047    5.27297    0    0    0
     324      108        2  0.52000000   15.15893   -0.10618    6.75818    0    0    0
     325      109        1 -1.04000000   19.04546   13.76894    7.68832    0    0    0
     326      109        2  0.52000000   19.23430   14.70468    7.75600    0    0    0
     327      109        2  0.52000000   18.72024   13.52638    8.55568    0    0    0
     328      110        1 -1.04000000   10.78343    9.67596    0.02641    0    0    0
     329      110        2  0.52000000   10.71186   10.37685   -0.62126    0    0    0
     330      110        2  0.52000000   11.50471    9.94719    0.59485    0    0    0
     331      111        1 -1.04000000    6.12940    6.34050    1.14113    0    0    0
     332      111        2  0.52000000    5.22216    6.07648    0.98933    0    0    0
     333      111        2  0.52000000    6.64844    5.58302    0.86954    0    0    0
     334      112        1 -1.04000000   17.38926    6.01223    3.96954    0    0    0
     335      112        2  0.52000000   16.74237    6.22559    3.29733    0    0    0
     336      112        2  0.52000000   16.86837    5.76218    4.73313    0    0    0
     337      113        1 -1.04000000    6.04680    1.73574   18.71614    0    0    0
     338      113        2  0.52000000    6.59666    1.86967   19.48786    0    0    0
     339      113        2  0.52000000    5.35653    2.39459   18.79600    0    0    0