Created by /global/cfs/cdirs/m5056/rsb/codes/ATLAS-toolkit/scripts/createLammpsInput.pl on Thu Apr  9 14:48:01 2026

         882 atoms
         568 bonds
         274 angles

           6 atom types
           2 bond types
           1 angle types

		   0.000000  20.249070 xlo xhi
		   0.000000  20.249070 ylo yhi
		   0.000000  20.249070 zlo zhi

Masses

    1 1.5999E+01 # OW     
    2 1.0080E+00 # HW     
    3 6.9410E+00 # Li     
    4 3.9948E+01 # K_     
    5 1.5999E+01 # O_3    
    6 1.0080E+00 # H_     

Atoms

       1        1        1 -1.04000000    5.88388    7.28976   18.76514    0    0    0
       2        1        2  0.52000000    5.61785    7.12714   19.66993    0    0    0
       3        1        2  0.52000000    6.49827    6.58310   18.56493    0    0    0
       4        2        1 -1.04000000    8.78776   13.26118   10.80165    0    0    0
       5        2        2  0.52000000    8.75856   13.07414   11.73974    0    0    0
       6        2        2  0.52000000    9.45367   12.66468   10.45861    0    0    0
       7        3        1 -1.04000000    4.95189   14.61364    0.96821    0    0    0
       8        3        2  0.52000000    5.19054   15.11160    1.74983    0    0    0
       9        3        2  0.52000000    4.85757   15.27477    0.28196    0    0    0
      10        4        1 -1.04000000   17.89881   18.94670    2.37353    0    0    0
      11        4        2  0.52000000   18.47349   18.39932    1.83876    0    0    0
      12        4        2  0.52000000   17.62770   19.65398    1.78771    0    0    0
      13        5        1 -1.04000000   16.86256    0.26612   12.25078    0    0    0
      14        5        2  0.52000000   16.90195    0.32628   11.29649    0    0    0
      15        5        2  0.52000000   17.23549   -0.59241   12.45273    0    0    0
      16        6        1 -1.04000000    3.28981    7.79827   11.83291    0    0    0
      17        6        2  0.52000000    3.30402    8.25687   12.67275    0    0    0
      18        6        2  0.52000000    2.40617    7.94486   11.49434    0    0    0
      19        7        1 -1.04000000   16.85447   -0.09343    0.64972    0    0    0
      20        7        2  0.52000000   16.37970    0.23884    1.41133    0    0    0
      21        7        2  0.52000000   17.76583   -0.14541    0.93895    0    0    0
      22        8        1 -1.04000000   14.91581    1.67820   16.20484    0    0    0
      23        8        2  0.52000000   15.32773    2.48222   16.52064    0    0    0
      24        8        2  0.52000000   14.75647    1.83958   15.27452    0    0    0
      25        9        1 -1.04000000    6.17465    6.72392    9.21420    0    0    0
      26        9        2  0.52000000    5.25874    6.99927    9.24808    0    0    0
      27        9        2  0.52000000    6.56661    7.27680    8.53772    0    0    0
      28       10        1 -1.04000000   18.18450   16.29983    5.16931    0    0    0
      29       10        2  0.52000000   18.17124   16.06961    4.24050    0    0    0
      30       10        2  0.52000000   17.64426   15.63056    5.59019    0    0    0
      31       11        1 -1.04000000    1.98831   17.21061    6.32880    0    0    0
      32       11        2  0.52000000    2.72956   16.72064    5.97337    0    0    0
      33       11        2  0.52000000    1.28213   17.06875    5.69783    0    0    0
      34       12        1 -1.04000000    5.34104   16.81632   19.94943    0    0    0
      35       12        2  0.52000000    4.65105   16.95874   19.30176    0    0    0
      36       12        2  0.52000000    5.00791   17.22493   20.74880    0    0    0
      37       13        1 -1.04000000    4.73300    7.80384    4.20697    0    0    0
      38       13        2  0.52000000    5.44978    8.34423    4.53871    0    0    0
      39       13        2  0.52000000    4.81722    7.85192    3.25433    0    0    0
      40       14        1 -1.04000000   11.73318   13.22869    0.82938    0    0    0
      41       14        2  0.52000000   11.72895   12.27409    0.89706    0    0    0
      42       14        2  0.52000000   12.53787   13.49722    1.27356    0    0    0
      43       15        1 -1.04000000    8.06490   15.37111   13.89673    0    0    0
      44       15        2  0.52000000    7.76594   15.04300   14.74456    0    0    0
      45       15        2  0.52000000    8.16916   14.58588   13.35871    0    0    0
      46       16        1 -1.04000000   14.90600   14.18309   19.66797    0    0    0
      47       16        2  0.52000000   14.49151   13.40818   20.04687    0    0    0
      48       16        2  0.52000000   15.60249   14.40872   20.28515    0    0    0
      49       17        1 -1.04000000   17.19694   10.13824   18.69226    0    0    0
      50       17        2  0.52000000   16.28024   10.29385   18.91874    0    0    0
      51       17        2  0.52000000   17.52282    9.56791   19.38900    0    0    0
      52       18        1 -1.04000000   -0.36769   15.89134   12.07483    0    0    0
      53       18        2  0.52000000   -0.02093   16.26521   11.26500    0    0    0
      54       18        2  0.52000000    0.38862   15.84345   12.66017    0    0    0
      55       19        1 -1.04000000   14.74656    3.89497   18.27810    0    0    0
      56       19        2  0.52000000   14.60517    4.51087   17.55940    0    0    0
      57       19        2  0.52000000   15.64827    3.59416   18.16250    0    0    0
      58       20        1 -1.04000000    7.69183   17.15315   15.81514    0    0    0
      59       20        2  0.52000000    8.35127   16.55762   15.45970    0    0    0
      60       20        2  0.52000000    7.95691   17.28922   16.72516    0    0    0
      61       21        1 -1.04000000    4.25193   11.07930    7.28783    0    0    0
      62       21        2  0.52000000    4.42919   11.04271    6.34810    0    0    0
      63       21        2  0.52000000    3.31888   10.87799    7.36407    0    0    0
      64       22        1 -1.04000000    8.32462   15.78711   10.95639    0    0    0
      65       22        2  0.52000000    7.42310   15.52476   10.77124    0    0    0
      66       22        2  0.52000000    8.25229   16.68814   11.27237    0    0    0
      67       23        1 -1.04000000   11.32848    4.94241   10.20343    0    0    0
      68       23        2  0.52000000   11.22466    4.96193    9.25228    0    0    0
      69       23        2  0.52000000   10.44686    5.09565   10.54429    0    0    0
      70       24        1 -1.04000000   10.90182    8.97717    5.37741    0    0    0
      71       24        2  0.52000000   10.70026    9.68140    4.76155    0    0    0
      72       24        2  0.52000000   11.39792    8.34143    4.86104    0    0    0
      73       25        1 -1.04000000   17.13729   15.21910   12.29283    0    0    0
      74       25        2  0.52000000   17.21407   15.38301   11.35310    0    0    0
      75       25        2  0.52000000   16.64864   14.39789   12.35408    0    0    0
      76       26        1 -1.04000000   17.65047    9.87797   14.12467    0    0    0
      77       26        2  0.52000000   18.38785    9.34222   13.83296    0    0    0
      78       26        2  0.52000000   17.96167   10.77981   14.04237    0    0    0
      79       27        1 -1.04000000   14.70981    3.87128   10.22765    0    0    0
      80       27        2  0.52000000   14.83223    3.71616    9.29127    0    0    0
      81       27        2  0.52000000   15.45795    4.41256   10.48108    0    0    0
      82       28        1 -1.04000000   16.19633    4.97540    7.66318    0    0    0
      83       28        2  0.52000000   16.24611    4.38461    8.41440    0    0    0
      84       28        2  0.52000000   15.55756    5.64000    7.92242    0    0    0
      85       29        1 -1.04000000   18.14525    9.75022    2.73710    0    0    0
      86       29        2  0.52000000   18.20582    9.69743    3.69072    0    0    0
      87       29        2  0.52000000   17.64893   10.55234    2.57218    0    0    0
      88       30        1 -1.04000000    7.08270    0.14824    8.35183    0    0    0
      89       30        2  0.52000000    6.29103    0.28263    7.83121    0    0    0
      90       30        2  0.52000000    7.62627   -0.43087    7.81696    0    0    0
      91       31        1 -1.04000000   12.20618    8.67651    9.07380    0    0    0
      92       31        2  0.52000000   12.16458    9.17027    8.25507    0    0    0
      93       31        2  0.52000000   11.62924    9.15322    9.67114    0    0    0
      94       32        1 -1.04000000   11.28644   18.92863    7.74415    0    0    0
      95       32        2  0.52000000   10.60067   19.59350    7.68489    0    0    0
      96       32        2  0.52000000   11.11289   18.47787    8.57096    0    0    0
      97       33        1 -1.04000000   10.79143    1.96814    2.67124    0    0    0
      98       33        2  0.52000000   11.73932    2.06918    2.75581    0    0    0
      99       33        2  0.52000000   10.46925    1.96268    3.57296    0    0    0
     100       34        1 -1.04000000   11.32378    4.14792   -0.16090    0    0    0
     101       34        2  0.52000000   10.91052    3.30484   -0.34605    0    0    0
     102       34        2  0.52000000   10.76570    4.54724    0.50695    0    0    0
     103       35        1 -1.04000000    8.87269    3.65395   16.87098    0    0    0
     104       35        2  0.52000000    9.77575    3.91675   17.04782    0    0    0
     105       35        2  0.52000000    8.35156    4.42930   17.08119    0    0    0
     106       36        1 -1.04000000    5.10359    7.25905   13.27343    0    0    0
     107       36        2  0.52000000    4.26440    7.19208   12.81833    0    0    0
     108       36        2  0.52000000    5.63201    6.54888   12.90824    0    0    0
     109       37        1 -1.04000000   20.05489   12.70969   14.74445    0    0    0
     110       37        2  0.52000000   20.60138   12.93959   15.49567    0    0    0
     111       37        2  0.52000000   19.34372   13.35072   14.75988    0    0    0
     112       38        1 -1.04000000   16.21645    8.20195   16.25489    0    0    0
     113       38        2  0.52000000   15.92951    7.29149   16.32257    0    0    0
     114       38        2  0.52000000   15.85404    8.50656   15.42255    0    0    0
     115       39        1 -1.04000000   15.36801   12.94029    2.11666    0    0    0
     116       39        2  0.52000000   15.01202   12.85024    1.23291    0    0    0
     117       39        2  0.52000000   14.61997   13.20947    2.65044    0    0    0
     118       40        1 -1.04000000    0.32016    5.85984   11.82549    0    0    0
     119       40        2  0.52000000    0.25731    6.60579   12.42169    0    0    0
     120       40        2  0.52000000   -0.57746    5.53438   11.75282    0    0    0
     121       41        1 -1.04000000    6.69278    8.19747    0.13865    0    0    0
     122       41        2  0.52000000    6.96433    8.10254   -0.77409    0    0    0
     123       41        2  0.52000000    7.34289    7.69999    0.63544    0    0    0
     124       42        1 -1.04000000    7.78674    5.92203    4.31787    0    0    0
     125       42        2  0.52000000    7.71349    5.52275    3.45123    0    0    0
     126       42        2  0.52000000    8.49977    6.55523    4.23090    0    0    0
     127       43        1 -1.04000000   -0.26384    7.77814   -0.18377    0    0    0
     128       43        2  0.52000000    0.33712    8.41468   -0.57043    0    0    0
     129       43        2  0.52000000   -0.07329    7.80718    0.75420    0    0    0
     130       44        1 -1.04000000    7.30206   13.11185    5.22103    0    0    0
     131       44        2  0.52000000    6.95182   13.54764    4.44432    0    0    0
     132       44        2  0.52000000    6.74613   12.34051    5.33465    0    0    0
     133       45        1 -1.04000000    3.74703   17.10480   13.27861    0    0    0
     134       45        2  0.52000000    3.55151   16.71469   12.42689    0    0    0
     135       45        2  0.52000000    4.70146   17.18050   13.29450    0    0    0
     136       46        1 -1.04000000   -0.10310   11.30600   12.78014    0    0    0
     137       46        2  0.52000000    0.67239   10.75298   12.68714    0    0    0
     138       46        2  0.52000000   -0.56929   10.94102   13.53273    0    0    0
     139       47        1 -1.04000000    7.91709   19.37635    1.06392    0    0    0
     140       47        2  0.52000000    8.34216   18.99248    0.29724    0    0    0
     141       47        2  0.52000000    7.74075   18.63117    1.63884    0    0    0
     142       48        1 -1.04000000   17.35678   14.09417    7.87177    0    0    0
     143       48        2  0.52000000   17.12171   13.41205    8.50050    0    0    0
     144       48        2  0.52000000   16.52151   14.49379    7.62773    0    0    0
     145       49        1 -1.04000000    3.77258    2.72794   17.83609    0    0    0
     146       49        2  0.52000000    3.81194    2.98006   18.75845    0    0    0
     147       49        2  0.52000000    4.41548    3.29200   17.40546    0    0    0
     148       50        1 -1.04000000   17.62571   14.89252   18.03096    0    0    0
     149       50        2  0.52000000   18.15344   14.95350   17.23495    0    0    0
     150       50        2  0.52000000   18.22085   15.15397   18.73409    0    0    0
     151       51        1 -1.04000000    5.27636    9.72722   16.95733    0    0    0
     152       51        2  0.52000000    5.07810   10.24259   17.73895    0    0    0
     153       51        2  0.52000000    4.64555   10.03018   16.30371    0    0    0
     154       52        1 -1.04000000   20.16733   13.34398    2.92076    0    0    0
     155       52        2  0.52000000   19.61882   13.11892    3.67199    0    0    0
     156       52        2  0.52000000   20.21385   12.53709    2.40725    0    0    0
     157       53        1 -1.04000000   13.92368   -0.34220    0.17227    0    0    0
     158       53        2  0.52000000   13.87763   -0.13309   -0.76047    0    0    0
     159       53        2  0.52000000   14.19869    0.47529    0.58820    0    0    0
     160       54        1 -1.04000000   16.07223   14.68024   16.78754    0    0    0
     161       54        2  0.52000000   16.06478   14.76024   17.74116    0    0    0
     162       54        2  0.52000000   15.86300   15.55952   16.47129    0    0    0
     163       55        1 -1.04000000   13.80960   11.73794    4.78165    0    0    0
     164       55        2  0.52000000   13.83704   11.79519    5.73655    0    0    0
     165       55        2  0.52000000   14.35336   12.46687    4.48180    0    0    0
     166       56        1 -1.04000000   19.15604   15.35274    9.93814    0    0    0
     167       56        2  0.52000000   19.25760   14.56562    9.40338    0    0    0
     168       56        2  0.52000000   18.58636   15.08164   10.65848    0    0    0
     169       57        1 -1.04000000   -0.11885    6.65254   13.86677    0    0    0
     170       57        2  0.52000000    0.77529    6.99198   13.90065    0    0    0
     171       57        2  0.52000000   -0.65643    7.35548   14.23258    0    0    0
     172       58        1 -1.04000000    1.26894   14.96093   20.28062    0    0    0
     173       58        2  0.52000000    1.41454   15.11793   19.34789    0    0    0
     174       58        2  0.52000000    0.31652   14.92114   20.37149    0    0    0
     175       59        1 -1.04000000    3.86506   -0.35973    3.92939    0    0    0
     176       59        2  0.52000000    3.47349    0.31390    4.48503    0    0    0
     177       59        2  0.52000000    4.66145    0.04583    3.58558    0    0    0
     178       60        1 -1.04000000   15.79223   12.28644    6.83451    0    0    0
     179       60        2  0.52000000   16.62677   12.36048    7.29702    0    0    0
     180       60        2  0.52000000   15.58099   11.35308    6.86848    0    0    0
     181       61        1 -1.04000000    6.35194   12.85285   13.91582    0    0    0
     182       61        2  0.52000000    5.90813   12.86071   14.76365    0    0    0
     183       61        2  0.52000000    5.73993   13.28644   13.32053    0    0    0
     184       62        1 -1.04000000    7.12107    9.33165   14.16719    0    0    0
     185       62        2  0.52000000    6.99598    9.15787   13.23445    0    0    0
     186       62        2  0.52000000    6.88294    8.51048   14.59836    0    0    0
     187       63        1 -1.04000000   20.07976   18.33175    2.80979    0    0    0
     188       63        2  0.52000000   19.69368   18.23408    3.67998    0    0    0
     189       63        2  0.52000000   20.22656   17.43417    2.51023    0    0    0
     190       64        1 -1.04000000    6.18515   17.09190    4.66852    0    0    0
     191       64        2  0.52000000    6.57266   16.90829    5.52408    0    0    0
     192       64        2  0.52000000    5.24219   16.99981    4.80740    0    0    0
     193       65        1 -1.04000000   12.75465    4.03569    2.69812    0    0    0
     194       65        2  0.52000000   12.66727    4.41632    3.57181    0    0    0
     195       65        2  0.52000000   13.57809    3.54799    2.73006    0    0    0
     196       66        1 -1.04000000   10.10523    0.29993   12.22709    0    0    0
     197       66        2  0.52000000   10.01703    0.28974   11.27421    0    0    0
     198       66        2  0.52000000    9.87773   -0.58967   12.49870    0    0    0
     199       67        1 -1.04000000    4.19145   12.78354    8.73714    0    0    0
     200       67        2  0.52000000    4.47849   13.02488    9.61760    0    0    0
     201       67        2  0.52000000    3.33006   13.19158    8.64526    0    0    0
     202       68        1 -1.04000000    8.63914    4.89042    0.10186    0    0    0
     203       68        2  0.52000000    8.89824    5.43105   -0.64409    0    0    0
     204       68        2  0.52000000    9.46262    4.67853    0.54222    0    0    0
     205       69        1 -1.04000000    6.93931    1.00492   14.61413    0    0    0
     206       69        2  0.52000000    7.43675    0.36302   15.12046    0    0    0
     207       69        2  0.52000000    6.62394    1.63206   15.26541    0    0    0
     208       70        1 -1.04000000   18.05602    4.62450   14.90802    0    0    0
     209       70        2  0.52000000   18.59390    5.17439   15.47737    0    0    0
     210       70        2  0.52000000   17.35008    5.20111   14.61461    0    0    0
     211       71        1 -1.04000000    1.97588   -0.15880    9.64391    0    0    0
     212       71        2  0.52000000    1.69581   -0.54071   10.47551    0    0    0
     213       71        2  0.52000000    2.32832    0.69951    9.88059    0    0    0
     214       72        1 -1.04000000    5.84040    7.24058    2.26316    0    0    0
     215       72        2  0.52000000    5.86130    7.34413    1.31200    0    0    0
     216       72        2  0.52000000    6.29831    6.41529    2.42484    0    0    0
     217       73        1 -1.04000000    1.91487    5.38121   -0.00561    0    0    0
     218       73        2  0.52000000    2.75826    4.97242    0.18785    0    0    0
     219       73        2  0.52000000    1.32687    4.64637   -0.18224    0    0    0
     220       74        1 -1.04000000   17.93310    1.29832   17.24316    0    0    0
     221       74        2  0.52000000   18.18895    0.40440   17.46965    0    0    0
     222       74        2  0.52000000   17.87795    1.29727   16.28719    0    0    0
     223       75        1 -1.04000000    2.04513    0.61302   17.02851    0    0    0
     224       75        2  0.52000000    1.35116    1.08961   16.57341    0    0    0
     225       75        2  0.52000000    2.60371    1.29737   17.39807    0    0    0
     226       76        1 -1.04000000   13.74357    5.10493    8.27538    0    0    0
     227       76        2  0.52000000   14.69784    5.07959    8.34306    0    0    0
     228       76        2  0.52000000   13.55859    4.81548    7.38155    0    0    0
     229       77        1 -1.04000000    3.15084   13.76809   12.72420    0    0    0
     230       77        2  0.52000000    3.61869   14.23800   13.41423    0    0    0
     231       77        2  0.52000000    2.23048   13.99391   12.86157    0    0    0
     232       78        1 -1.04000000    0.31515   12.20434    2.89265    0    0    0
     233       78        2  0.52000000    0.17252   11.73740    3.71574    0    0    0
     234       78        2  0.52000000   -0.48768   12.05825    2.39161    0    0    0
     235       79        1 -1.04000000    3.14253   19.18178   12.68497    0    0    0
     236       79        2  0.52000000    2.30222   19.33209   13.11756    0    0    0
     237       79        2  0.52000000    3.55525   18.48613   13.19747    0    0    0
     238       80        1 -1.04000000   16.03149   15.13722    6.63561    0    0    0
     239       80        2  0.52000000   16.63815   14.55939    7.09812    0    0    0
     240       80        2  0.52000000   15.33036   15.30339    7.26627    0    0    0
     241       81        1 -1.04000000    9.81721    4.94325   13.34054    0    0    0
     242       81        2  0.52000000   10.55846    4.45328   12.98511    0    0    0
     243       81        2  0.52000000    9.62433    5.60348   12.67435    0    0    0
     244       82        1 -1.04000000    8.11939    7.08312   16.36255    0    0    0
     245       82        2  0.52000000    8.59637    7.21735   15.54381    0    0    0
     246       82        2  0.52000000    7.28424    6.69953   16.09364    0    0    0
     247       83        1 -1.04000000   15.79417    7.85681    6.29955    0    0    0
     248       83        2  0.52000000   16.46786    7.41149    5.78605    0    0    0
     249       83        2  0.52000000   15.73798    8.73170    5.91440    0    0    0
     250       84        1 -1.04000000   -0.22352   10.26336    9.18243    0    0    0
     251       84        2  0.52000000   -0.12172   10.13436    8.23965    0    0    0
     252       84        2  0.52000000    0.34524    9.60228    9.57792    0    0    0
     253       85        1 -1.04000000   15.20605   17.05219   14.32775    0    0    0
     254       85        2  0.52000000   15.53650   16.99308   13.43156    0    0    0
     255       85        2  0.52000000   14.25745   16.95473   14.24069    0    0    0
     256       86        1 -1.04000000   17.73544   19.18463   13.77972    0    0    0
     257       86        2  0.52000000   17.58438   18.69012   14.58501    0    0    0
     258       86        2  0.52000000   18.68018   19.12525   13.63526    0    0    0
     259       87        1 -1.04000000   11.82945   -0.32146    8.85795    0    0    0
     260       87        2  0.52000000   12.11355   -0.15799    9.75707    0    0    0
     261       87        2  0.52000000   12.05701    0.47945    8.38499    0    0    0
     262       88        1 -1.04000000   18.28524   12.21608   16.84330    0    0    0
     263       88        2  0.52000000   17.34475   12.39291   16.83483    0    0    0
     264       88        2  0.52000000   18.37001   11.39102   17.32187    0    0    0
     265       89        1 -1.04000000    9.08863   -0.03093   18.37920    0    0    0
     266       89        2  0.52000000    8.25029    0.22110   17.99253    0    0    0
     267       89        2  0.52000000    9.66107   -0.19017   17.62827    0    0    0
     268       90        1 -1.04000000   10.20961   10.20110   17.73880    0    0    0
     269       90        2  0.52000000   10.42631    9.36015   18.14090    0    0    0
     270       90        2  0.52000000    9.36408   10.43874   18.12029    0    0    0
     271       91        1 -1.04000000    4.14530   16.75710   15.73076    0    0    0
     272       91        2  0.52000000    3.45832   16.57683   16.37217    0    0    0
     273       91        2  0.52000000    4.39638   17.66607   15.89707    0    0    0
     274       92        1 -1.04000000   14.33182   16.83305    1.12094    0    0    0
     275       92        2  0.52000000   13.96462   16.83305    0.23719    0    0    0
     276       92        2  0.52000000   13.70357   17.33391    1.64187    0    0    0
     277       93        1 -1.04000000    0.61081   18.99242   11.03275    0    0    0
     278       93        2  0.52000000    1.18356   19.75910   11.03275    0    0    0
     279       93        2  0.52000000    1.20564   18.24848   10.93450    0    0    0
     280       94        1 -1.04000000    8.87597    8.80774    5.68337    0    0    0
     281       94        2  0.52000000    8.46011    9.55324    6.11596    0    0    0
     282       94        2  0.52000000    9.66392    8.63902    6.20067    0    0    0
     283       95        1 -1.04000000    3.95621    6.27251   18.72355    0    0    0
     284       95        2  0.52000000    4.75855    6.03130   19.18606    0    0    0
     285       95        2  0.52000000    3.28523    5.69619   19.09038    0    0    0
     286       96        1 -1.04000000    7.33751   14.11974   17.84395    0    0    0
     287       96        2  0.52000000    7.16451   13.29998   18.30646    0    0    0
     288       96        2  0.52000000    6.49798   14.58027   17.84959    0    0    0
     289       97        1 -1.04000000   15.30883    6.77178    2.92828    0    0    0
     290       97        2  0.52000000   14.47543    6.79392    2.45837    0    0    0
     291       97        2  0.52000000   15.21574    7.43430    3.61335    0    0    0
     292       98        1 -1.04000000   14.09724   16.22973    5.69938    0    0    0
     293       98        2  0.52000000   13.36765   16.34033    6.30874    0    0    0
     294       98        2  0.52000000   14.53510   15.42994    5.99187    0    0    0
     295       99        1 -1.04000000    0.85295    6.88361    3.34269    0    0    0
     296       99        2  0.52000000    0.38871    7.30287    2.61843    0    0    0
     297       99        2  0.52000000    1.75834    6.81352    3.03889    0    0    0
     298      100        1 -1.04000000   11.95355    5.65333    0.17397    0    0    0
     299      100        2  0.52000000   12.16440    5.82432   -0.74372    0    0    0
     300      100        2  0.52000000   11.88205    6.52234    0.56975    0    0    0
     301      101        1 -1.04000000   14.08020    7.62952   12.90560    0    0    0
     302      101        2  0.52000000   14.66021    8.26608   13.32301    0    0    0
     303      101        2  0.52000000   13.25959    8.10441   12.77139    0    0    0
     304      102        1 -1.04000000    9.04849   15.36554   17.87103    0    0    0
     305      102        2  0.52000000    9.67341   14.64199   17.82869    0    0    0
     306      102        2  0.52000000    8.27810   14.99247   18.30027    0    0    0
     307      103        1 -1.04000000    8.72856    8.96090   14.72180    0    0    0
     308      103        2  0.52000000    9.65020    9.19406   14.61195    0    0    0
     309      103        2  0.52000000    8.62123    8.84504   15.66625    0    0    0
     310      104        1 -1.04000000    0.26038    3.77927   16.18995    0    0    0
     311      104        2  0.52000000   -0.49205    3.48599   15.67645    0    0    0
     312      104        2  0.52000000    0.23166    4.73474   16.13360    0    0    0
     313      105        1 -1.04000000    1.19513    5.15730   19.70036    0    0    0
     314      105        2  0.52000000    0.63606    4.38063   19.69189    0    0    0
     315      105        2  0.52000000    1.16881    5.46207   20.60775    0    0    0
     316      106        1 -1.04000000    5.67777    4.20351   13.91423    0    0    0
     317      106        2  0.52000000    6.21301    4.26056   14.70551    0    0    0
     318      106        2  0.52000000    6.10922    3.53594   13.38026    0    0    0
     319      107        1 -1.04000000   10.31487    6.91399   17.78537    0    0    0
     320      107        2  0.52000000    9.39501    6.83239   17.53428    0    0    0
     321      107        2  0.52000000   10.29013    7.25362   18.68035    0    0    0
     322      108        1 -1.04000000    7.88738   14.62597    1.00454    0    0    0
     323      108        2  0.52000000    8.17324   15.16041    1.74516    0    0    0
     324      108        2  0.52000000    7.93937   15.21362    0.25030    0    0    0
     325      109        1 -1.04000000   -0.03017   18.08735   18.62044    0    0    0
     326      109        2  0.52000000   -0.65586   17.60688   19.16221    0    0    0
     327      109        2  0.52000000    0.68603   18.30577   19.21735    0    0    0
     328      110        1 -1.04000000    0.96781   18.20754    8.67062    0    0    0
     329      110        2  0.52000000    0.98376   18.53492    9.56974    0    0    0
     330      110        2  0.52000000    1.04843   17.25754    8.75964    0    0    0
     331      111        1 -1.04000000    4.93426    0.64442   -0.14781    0    0    0
     332      111        2  0.52000000    4.70832    1.49017   -0.53447    0    0    0
     333      111        2  0.52000000    5.35742    0.86540    0.68227    0    0    0
     334      112        1 -1.04000000    8.72613   10.13631    9.75707    0    0    0
     335      112        2  0.52000000    8.71670   10.14483   10.71398    0    0    0
     336      112        2  0.52000000    9.55717    9.71886    9.52895    0    0    0
     337      113        1 -1.04000000   17.67923   -0.14148    6.82769    0    0    0
     338      113        2  0.52000000   17.98296    0.76588    6.84463    0    0    0