Created by /global/cfs/cdirs/m5056/rsb/codes/ATLAS-toolkit/scripts/createLammpsInput.pl on Thu Apr  9 14:47:56 2026

         846 atoms
         544 bonds
         262 angles

           6 atom types
           2 bond types
           1 angle types

		   0.000000  20.250160 xlo xhi
		   0.000000  20.250160 ylo yhi
		   0.000000  20.250160 zlo zhi

Masses

    1 1.5999E+01 # OW     
    2 1.0080E+00 # HW     
    3 6.9410E+00 # Li     
    4 3.9948E+01 # K_     
    5 1.5999E+01 # O_3    
    6 1.0080E+00 # H_     

Atoms

       1        1        1 -1.04000000    4.73062    5.27202    4.07774    0    0    0
       2        1        2  0.52000000    5.46080    5.33028    3.46187    0    0    0
       3        1        2  0.52000000    4.80858    4.39770    4.46039    0    0    0
       4        2        1 -1.04000000   -0.34704    5.08839   14.84395    0    0    0
       5        2        2  0.52000000   -0.09411    5.12216   15.76631    0    0    0
       6        2        2  0.52000000    0.44115    4.78945   14.38974    0    0    0
       7        3        1 -1.04000000   19.72447    1.78638   11.17621    0    0    0
       8        3        2  0.52000000   19.78789    2.74033   11.13387    0    0    0
       9        3        2  0.52000000   20.48764    1.47329   10.68991    0    0    0
      10        4        1 -1.04000000    3.74113    4.78630   16.80020    0    0    0
      11        4        2  0.52000000    3.76927    4.93973   17.74440    0    0    0
      12        4        2  0.52000000    4.48961    5.27397   16.45540    0    0    0
      13        5        1 -1.04000000   11.00495    1.85232   13.63838    0    0    0
      14        5        2  0.52000000   10.72173    1.41971   14.44367    0    0    0
      15        5        2  0.52000000   11.27332    2.72796   13.91795    0    0    0
      16        6        1 -1.04000000   10.11035   10.67890   13.19318    0    0    0
      17        6        2  0.52000000   10.64681   11.23714   12.63066    0    0    0
      18        6        2  0.52000000    9.24284   11.08396   13.17616    0    0    0
      19        7        1 -1.04000000   16.75464    8.81604   14.75801    0    0    0
      20        7        2  0.52000000   16.75246    8.80352   15.71493    0    0    0
      21        7        2  0.52000000   17.49290    9.38044   14.52706    0    0    0
      22        8        1 -1.04000000   13.31812    5.86376    5.81879    0    0    0
      23        8        2  0.52000000   13.17933    5.96649    6.76008    0    0    0
      24        8        2  0.52000000   12.50254    6.16976    5.42113    0    0    0
      25        9        1 -1.04000000    5.24022    8.10963   12.28788    0    0    0
      26        9        2  0.52000000    4.83026    7.25421   12.16122    0    0    0
      27        9        2  0.52000000    4.92951    8.63616   11.55089    0    0    0
      28       10        1 -1.04000000    4.71753    8.83341    2.78773    0    0    0
      29       10        2  0.52000000    4.68487    9.08649    3.71008    0    0    0
      30       10        2  0.52000000    5.59760    9.08010    2.50218    0    0    0
      31       11        1 -1.04000000   18.65453    2.84047   17.91168    0    0    0
      32       11        2  0.52000000   18.84934    3.76364   18.07184    0    0    0
      33       11        2  0.52000000   19.49613    2.39589   18.01648    0    0    0
      34       12        1 -1.04000000    8.91678    6.93576   16.37623    0    0    0
      35       12        2  0.52000000    8.73609    7.72285   15.86273    0    0    0
      36       12        2  0.52000000    9.34713    6.34139   15.76104    0    0    0
      37       13        1 -1.04000000    1.75700   10.98738   18.69439    0    0    0
      38       13        2  0.52000000    2.02159   11.75515   19.20072    0    0    0
      39       13        2  0.52000000    2.22141   10.25747   19.10488    0    0    0
      40       14        1 -1.04000000    5.81370   14.74167   15.77381    0    0    0
      41       14        2  0.52000000    5.69642   14.89027   16.71190    0    0    0
      42       14        2  0.52000000    6.48988   15.36805   15.51429    0    0    0
      43       15        1 -1.04000000   16.92522   16.22350    5.31154    0    0    0
      44       15        2  0.52000000   17.40598   15.39642    5.28613    0    0    0
      45       15        2  0.52000000   16.66880   16.38008    4.40233    0    0    0
      46       16        1 -1.04000000   11.37916    3.01681   19.90748    0    0    0
      47       16        2  0.52000000   10.99247    2.79885   20.75531    0    0    0
      48       16        2  0.52000000   10.62838    3.18434   19.33722    0    0    0
      49       17        1 -1.04000000    5.01454    2.29247    1.74144    0    0    0
      50       17        2  0.52000000    4.23961    1.82814    2.05724    0    0    0
      51       17        2  0.52000000    5.74585    1.87939    2.20132    0    0    0
      52       18        1 -1.04000000    4.71680    2.81009   14.19061    0    0    0
      53       18        2  0.52000000    5.04286    2.64121   13.30686    0    0    0
      54       18        2  0.52000000    5.24034    3.54870   14.50252    0    0    0
      55       19        1 -1.04000000   12.82600   15.73401   19.22710    0    0    0
      56       19        2  0.52000000   12.89788   15.73210   18.27281    0    0    0
      57       19        2  0.52000000   13.27611   16.53389   19.50009    0    0    0
      58       20        1 -1.04000000    1.70503   13.00272    5.74390    0    0    0
      59       20        2  0.52000000    1.95777   13.69601    6.35326    0    0    0
      60       20        2  0.52000000    2.33720   12.30127    5.90285    0    0    0
      61       21        1 -1.04000000    8.10764   17.29269    9.76474    0    0    0
      62       21        2  0.52000000    7.97972   17.32028   10.71275    0    0    0
      63       21        2  0.52000000    7.91264   16.38703    9.52251    0    0    0
      64       22        1 -1.04000000    0.06222   15.36190   17.13326    0    0    0
      65       22        2  0.52000000   -0.57166   15.08192   16.47322    0    0    0
      66       22        2  0.52000000    0.50945   14.55618   17.39352    0    0    0
      67       23        1 -1.04000000   18.68041    2.04838    0.21937    0    0    0
      68       23        2  0.52000000   18.88142    1.32183   -0.37018    0    0    0
      69       23        2  0.52000000   19.43817    2.62978    0.15081    0    0    0
      70       24        1 -1.04000000   -0.10407    1.72520    8.25740    0    0    0
      71       24        2  0.52000000   -0.16474    1.68662    7.30311    0    0    0
      72       24        2  0.52000000    0.26881    2.58818    8.43949    0    0    0
      73       25        1 -1.04000000   10.95267    3.71621   10.26424    0    0    0
      74       25        2  0.52000000   10.97710    3.63085    9.31137    0    0    0
      75       25        2  0.52000000   11.07024    4.65294   10.42438    0    0    0
      76       26        1 -1.04000000    9.94520   14.30491   16.23797    0    0    0
      77       26        2  0.52000000   10.03349   14.31432   15.28510    0    0    0
      78       26        2  0.52000000   10.02131   13.38077   16.47693    0    0    0
      79       27        1 -1.04000000   16.94153    6.29312   18.74847    0    0    0
      80       27        2  0.52000000   16.88440    6.32081   19.70337    0    0    0
      81       27        2  0.52000000   17.17407    5.38607   18.54816    0    0    0
      82       28        1 -1.04000000    5.77882    4.97631   10.32112    0    0    0
      83       28        2  0.52000000    5.93392    5.74487    9.77240    0    0    0
      84       28        2  0.52000000    6.28727    4.27882    9.90648    0    0    0
      85       29        1 -1.04000000    8.73709    2.06705   17.71896    0    0    0
      86       29        2  0.52000000    8.63991    1.50952   18.49068    0    0    0
      87       29        2  0.52000000    9.62300    2.42343   17.79036    0    0    0
      88       30        1 -1.04000000   12.68922   16.14062    6.80962    0    0    0
      89       30        2  0.52000000   13.02489   15.24446    6.80115    0    0    0
      90       30        2  0.52000000   13.28589   16.61492    7.38923    0    0    0
      91       31        1 -1.04000000    9.15370   19.35134    5.92558    0    0    0
      92       31        2  0.52000000    9.50047   18.49545    5.67448    0    0    0
      93       31        2  0.52000000    8.34583   19.15321    6.39994    0    0    0
      94       32        1 -1.04000000   16.26803    6.97638    2.71679    0    0    0
      95       32        2  0.52000000   15.38266    6.61310    2.71679    0    0    0
      96       32        2  0.52000000   16.34931    7.41052    3.56641    0    0    0
      97       33        1 -1.04000000    1.23095    0.85045   12.72269    0    0    0
      98       33        2  0.52000000    0.62086    0.38196   13.29205    0    0    0
      99       33        2  0.52000000    1.14819    1.76759   12.98526    0    0    0
     100       34        1 -1.04000000   11.71565   13.26481    2.04030    0    0    0
     101       34        2  0.52000000   12.03509   12.86734    1.23047    0    0    0
     102       34        2  0.52000000   12.24926   12.86785    2.72923    0    0    0
     103       35        1 -1.04000000    5.94813    0.36692   15.12363    0    0    0
     104       35        2  0.52000000    6.25972   -0.38301   15.62996    0    0    0
     105       35        2  0.52000000    5.79215    0.01609   14.24641    0    0    0
     106       36        1 -1.04000000    9.06547    7.26011   12.28400    0    0    0
     107       36        2  0.52000000    9.59944    7.09442   11.50730    0    0    0
     108       36        2  0.52000000    8.33508    6.64547   12.20870    0    0    0
     109       37        1 -1.04000000   12.71817   13.73311    1.04412    0    0    0
     110       37        2  0.52000000   12.83762   14.54529    1.53600    0    0    0
     111       37        2  0.52000000   13.44421   13.72159    0.41989    0    0    0
     112       38        1 -1.04000000    1.02804   15.87887   18.62967    0    0    0
     113       38        2  0.52000000    0.91243   16.77483   18.94547    0    0    0
     114       38        2  0.52000000    1.05953   15.34630   19.42485    0    0    0
     115       39        1 -1.04000000    5.36899   18.08566    3.90454    0    0    0
     116       39        2  0.52000000    4.71936   18.66198    4.30664    0    0    0
     117       39        2  0.52000000    4.91166   17.25236    3.78881    0    0    0
     118       40        1 -1.04000000   12.86832   10.36675   15.97245    0    0    0
     119       40        2  0.52000000   12.75661    9.75780   16.70222    0    0    0
     120       40        2  0.52000000   13.37507    9.87545   15.32534    0    0    0
     121       41        1 -1.04000000   11.20303    5.30356   15.13868    0    0    0
     122       41        2  0.52000000   10.83549    5.19661   14.26156    0    0    0
     123       41        2  0.52000000   10.96148    4.49983   15.59976    0    0    0
     124       42        1 -1.04000000    5.11556   13.73115   17.74122    0    0    0
     125       42        2  0.52000000    5.13194   13.66981   18.69611    0    0    0
     126       42        2  0.52000000    4.75250   14.59904   17.56267    0    0    0
     127       43        1 -1.04000000   15.05830   20.16118    8.64897    0    0    0
     128       43        2  0.52000000   14.95565   20.60835    9.48882    0    0    0
     129       43        2  0.52000000   14.98606   19.23046    8.86221    0    0    0
     130       44        1 -1.04000000   -0.25048   16.81994   12.23967    0    0    0
     131       44        2  0.52000000   -0.26432   16.83596   11.28290    0    0    0
     132       44        2  0.52000000    0.51480   17.34410   12.47743    0    0    0
     133       45        1 -1.04000000    5.10806   10.32835    7.81804    0    0    0
     134       45        2  0.52000000    4.74371   10.23960    8.69851    0    0    0
     135       45        2  0.52000000    5.14823    9.43204    7.48345    0    0    0
     136       46        1 -1.04000000    9.97928   10.38611    8.94437    0    0    0
     137       46        2  0.52000000   10.23039    9.71570    8.30928    0    0    0
     138       46        2  0.52000000    9.79032    9.89819    9.74635    0    0    0
     139       47        1 -1.04000000   19.27613   12.72422    2.98267    0    0    0
     140       47        2  0.52000000   18.34281   12.60799    3.15951    0    0    0
     141       47        2  0.52000000   19.38106   13.66779    2.85782    0    0    0
     142       48        1 -1.04000000    6.02939    4.93462   18.38401    0    0    0
     143       48        2  0.52000000    6.20153    5.75034   17.91410    0    0    0
     144       48        2  0.52000000    5.76909    4.31504   17.70189    0    0    0
     145       49        1 -1.04000000   17.63573   11.08666   16.88865    0    0    0
     146       49        2  0.52000000   18.26133   10.51155   16.44853    0    0    0
     147       49        2  0.52000000   18.10294   11.40180   17.66282    0    0    0
     148       50        1 -1.04000000   11.72761   14.88218   11.25401    0    0    0
     149       50        2  0.52000000   11.78653   14.67632   10.32128    0    0    0
     150       50        2  0.52000000   12.48586   15.44150   11.42471    0    0    0
     151       51        1 -1.04000000    5.75933    6.90319   15.29208    0    0    0
     152       51        2  0.52000000    5.92738    7.77570   14.93664    0    0    0
     153       51        2  0.52000000    6.31328    6.32110   14.77128    0    0    0
     154       52        1 -1.04000000    3.31903    7.94510   15.21865    0    0    0
     155       52        2  0.52000000    2.67818    7.28993   14.94313    0    0    0
     156       52        2  0.52000000    3.00279    8.76497   14.83822    0    0    0
     157       53        1 -1.04000000    5.33618   19.11289   16.83618    0    0    0
     158       53        2  0.52000000    4.71796   18.45806   16.51240    0    0    0
     159       53        2  0.52000000    4.94585   19.42905   17.65142    0    0    0
     160       54        1 -1.04000000   11.05706   19.28518   10.26080    0    0    0
     161       54        2  0.52000000   10.30044   18.70417   10.18467    0    0    0
     162       54        2  0.52000000   11.64250   19.01065    9.55452    0    0    0
     163       55        1 -1.04000000    8.91646   20.21260    2.68310    0    0    0
     164       55        2  0.52000000    8.35233   19.58234    3.13074    0    0    0
     165       55        2  0.52000000    9.73121   20.20505    3.18616    0    0    0
     166       56        1 -1.04000000   16.11367    8.66100   18.84265    0    0    0
     167       56        2  0.52000000   16.51693    9.52191   18.73280    0    0    0
     168       56        2  0.52000000   15.36940    8.81709   19.42456    0    0    0
     169       57        1 -1.04000000   10.00441    5.36351   19.85703    0    0    0
     170       57        2  0.52000000   10.07657    5.09341   20.77228    0    0    0
     171       57        2  0.52000000    9.91902    4.54308   19.37069    0    0    0
     172       58        1 -1.04000000   17.30450   18.02483    6.75656    0    0    0
     173       58        2  0.52000000   17.31873   17.83606    7.69465    0    0    0
     174       58        2  0.52000000   16.37677   18.13911    6.54879    0    0    0
     175       59        1 -1.04000000   12.90356    2.35761   17.87585    0    0    0
     176       59        2  0.52000000   12.52117    1.52208   17.60845    0    0    0
     177       59        2  0.52000000   13.57527    2.12031   18.51571    0    0    0
     178       60        1 -1.04000000   12.08108   18.67295   16.19766    0    0    0
     179       60        2  0.52000000   11.74625   19.49936   16.54521    0    0    0
     180       60        2  0.52000000   12.17267   18.82769   15.25713    0    0    0
     181       61        1 -1.04000000   19.20806    1.67058    4.97178    0    0    0
     182       61        2  0.52000000   19.00594    2.16946    5.76306    0    0    0
     183       61        2  0.52000000   18.78600    2.15996    4.26516    0    0    0
     184       62        1 -1.04000000    7.85835    2.24974   14.73511    0    0    0
     185       62        2  0.52000000    8.52446    2.41825   15.40126    0    0    0
     186       62        2  0.52000000    7.61718    1.33200   14.86363    0    0    0
     187       63        1 -1.04000000   15.98122    1.74369    5.29420    0    0    0
     188       63        2  0.52000000   16.76064    2.03958    4.82430    0    0    0
     189       63        2  0.52000000   15.25814    2.21673    4.88150    0    0    0
     190       64        1 -1.04000000    7.10760    1.37202    8.05124    0    0    0
     191       64        2  0.52000000    7.16818    0.65308    8.67998    0    0    0
     192       64        2  0.52000000    6.72422    0.97490    7.26878    0    0    0
     193       65        1 -1.04000000    9.24267    8.14525    5.26948    0    0    0
     194       65        2  0.52000000    8.78392    7.30554    5.28642    0    0    0
     195       65        2  0.52000000    8.97341    8.54922    4.44411    0    0    0
     196       66        1 -1.04000000    2.34236    8.84032    1.90052    0    0    0
     197       66        2  0.52000000    1.53507    8.86176    1.38702    0    0    0
     198       66        2  0.52000000    2.12257    9.29792    2.71245    0    0    0
     199       67        1 -1.04000000    2.10349   18.23836   12.70832    0    0    0
     200       67        2  0.52000000    2.67437   17.81582   13.34973    0    0    0
     201       67        2  0.52000000    1.22214   17.94582   12.94194    0    0    0
     202       68        1 -1.04000000   13.35909   18.86457    1.07293    0    0    0
     203       68        2  0.52000000   12.56174   18.35757    0.92113    0    0    0
     204       68        2  0.52000000   13.07917   19.77786    1.00594    0    0    0
     205       69        1 -1.04000000    1.94908   11.38348   17.05434    0    0    0
     206       69        2  0.52000000    1.31098   10.68316   17.18940    0    0    0
     207       69        2  0.52000000    2.73994   10.93336   16.75626    0    0    0
     208       70        1 -1.04000000   16.00561   15.65478    8.18273    0    0    0
     209       70        2  0.52000000   16.73948   16.11234    7.77296    0    0    0
     210       70        2  0.52000000   15.25490   16.23288    8.04431    0    0    0
     211       71        1 -1.04000000   18.74248    7.77679    9.80904    0    0    0
     212       71        2  0.52000000   19.67510    7.60998    9.94409    0    0    0
     213       71        2  0.52000000   18.58242    8.61323   10.24686    0    0    0
     214       72        1 -1.04000000    1.75173    9.12284    8.72454    0    0    0
     215       72        2  0.52000000    1.98885    9.56614    9.53886    0    0    0
     216       72        2  0.52000000    2.25942    8.31103    8.73660    0    0    0
     217       73        1 -1.04000000   17.97313    0.82286   15.34713    0    0    0
     218       73        2  0.52000000   18.76490    1.13148   14.90701    0    0    0
     219       73        2  0.52000000   17.26197    1.04566   14.74586    0    0    0
     220       74        1 -1.04000000   18.20284    7.70719    7.16037    0    0    0
     221       74        2  0.52000000   17.43107    7.64560    6.59785    0    0    0
     222       74        2  0.52000000   18.36609    8.64721    7.24178    0    0    0
     223       75        1 -1.04000000    8.16608   13.65282    1.06696    0    0    0
     224       75        2  0.52000000    7.31084   13.96031    1.36672    0    0    0
     225       75        2  0.52000000    8.52308   14.38687    0.56632    0    0    0
     226       76        1 -1.04000000   15.93905   19.37725   17.08104    0    0    0
     227       76        2  0.52000000   16.77278   18.94544   16.89588    0    0    0
     228       76        2  0.52000000   15.28817   18.67731   17.02308    0    0    0
     229       77        1 -1.04000000   19.06922   17.27487   15.26880    0    0    0
     230       77        2  0.52000000   18.25443   16.79642   15.11700    0    0    0
     231       77        2  0.52000000   19.67634   16.92871   14.61420    0    0    0
     232       78        1 -1.04000000    2.12907   16.18375   13.68034    0    0    0
     233       78        2  0.52000000    2.52718   16.17317   14.55054    0    0    0
     234       78        2  0.52000000    1.34375   15.64308   13.76912    0    0    0
     235       79        1 -1.04000000   12.00916   15.36845   13.87054    0    0    0
     236       79        2  0.52000000   12.70079   14.70968   13.81129    0    0    0
     237       79        2  0.52000000   11.29005   14.92186   14.31817    0    0    0
     238       80        1 -1.04000000   11.65984   11.15943    7.89286    0    0    0
     239       80        2  0.52000000   12.32994   11.53713    8.46221    0    0    0
     240       80        2  0.52000000   12.01022   10.30345    7.64493    0    0    0
     241       81        1 -1.04000000   19.09893    7.14088    4.64933    0    0    0
     242       81        2  0.52000000   18.21942    7.03925    5.01262    0    0    0
     243       81        2  0.52000000   19.68165    6.81987    5.33805    0    0    0
     244       82        1 -1.04000000    2.77532   11.30323   17.89915    0    0    0
     245       82        2  0.52000000    2.50657   10.39472   18.03420    0    0    0
     246       82        2  0.52000000    3.71812   11.30205   18.06665    0    0    0
     247       83        1 -1.04000000    9.95794   19.67324   19.20991    0    0    0
     248       83        2  0.52000000    9.58174   20.53525   19.38675    0    0    0
     249       83        2  0.52000000   10.46032   19.79151   18.40334    0    0    0
     250       84        1 -1.04000000   12.23177   15.83330    5.26664    0    0    0
     251       84        2  0.52000000   12.30360   15.78111    4.31376    0    0    0
     252       84        2  0.52000000   11.46463   16.38560    5.41960    0    0    0
     253       85        1 -1.04000000    7.03270   17.21173    7.32665    0    0    0
     254       85        2  0.52000000    7.11267   16.26263    7.23365    0    0    0
     255       85        2  0.52000000    6.85463   17.52564    6.43970    0    0    0
     256       86        1 -1.04000000    6.76810   14.79596    9.76085    0    0    0
     257       86        2  0.52000000    7.72177   14.75372    9.82854    0    0    0
     258       86        2  0.52000000    6.51013   15.45032   10.41061    0    0    0
     259       87        1 -1.04000000   17.26037   10.77135    0.18036    0    0    0
     260       87        2  0.52000000   16.45695   11.14335    0.54364    0    0    0
     261       87        2  0.52000000   17.28268   11.08529   -0.72400    0    0    0
     262       88        1 -1.04000000   11.16342   18.65210    0.93028    0    0    0
     263       88        2  0.52000000   10.28902   18.94911    0.67919    0    0    0
     264       88        2  0.52000000   11.54756   19.39879    1.39052    0    0    0
     265       89        1 -1.04000000    7.01865   11.11530    2.62723    0    0    0
     266       89        2  0.52000000    6.51421   10.38769    2.99051    0    0    0
     267       89        2  0.52000000    7.46714   11.49701    3.38226    0    0    0
     268       90        1 -1.04000000   18.35797    8.12888    0.08858    0    0    0
     269       90        2  0.52000000   17.61561    8.63869   -0.23520    0    0    0
     270       90        2  0.52000000   18.02641    7.23243    0.14662    0    0    0
     271       91        1 -1.04000000   16.64309    1.99794   17.84122    0    0    0
     272       91        2  0.52000000   17.04060    1.32780   18.39687    0    0    0
     273       91        2  0.52000000   17.31631    2.67426   17.76191    0    0    0
     274       92        1 -1.04000000    9.69841    6.75179   -0.00616    0    0    0
     275       92        2  0.52000000   10.08870    7.18013    0.75544    0    0    0
     276       92        2  0.52000000   10.21288    7.06808   -0.74927    0    0    0
     277       93        1 -1.04000000    5.16215   10.82186    0.30753    0    0    0
     278       93        2  0.52000000    5.55323   10.97830   -0.55179    0    0    0
     279       93        2  0.52000000    4.28462   11.19985    0.24425    0    0    0
     280       94        1 -1.04000000   15.66279    3.96942    4.19482    0    0    0
     281       94        2  0.52000000   15.78633    4.14431    3.26208    0    0    0
     282       94        2  0.52000000   16.55088    3.88627    4.54310    0    0    0
     283       95        1 -1.04000000   10.92741   10.22651    2.69012    0    0    0
     284       95        2  0.52000000   10.54182   10.28845    3.56380    0    0    0
     285       95        2  0.52000000   11.53076    9.48504    2.74608    0    0    0
     286       96        1 -1.04000000    7.62223    1.08135    3.05721    0    0    0
     287       96        2  0.52000000    8.36861    1.36469    3.58492    0    0    0
     288       96        2  0.52000000    8.00917    0.55396    2.35787    0    0    0
     289       97        1 -1.04000000   16.63820   18.93919    1.13418    0    0    0
     290       97        2  0.52000000   17.33163   19.46198    1.53628    0    0    0
     291       97        2  0.52000000   17.03017   18.59883    0.32954    0    0    0
     292       98        1 -1.04000000    2.07838   17.26567    4.72454    0    0    0
     293       98        2  0.52000000    2.55581   17.10820    5.53886    0    0    0
     294       98        2  0.52000000    1.36581   16.62612    4.73660    0    0    0
     295       99        1 -1.04000000    5.34212   14.16447    3.90778    0    0    0
     296       99        2  0.52000000    4.70028   14.46858    4.54919    0    0    0
     297       99        2  0.52000000    4.95759   13.36696    3.54303    0    0    0
     298      100        1 -1.04000000   12.16948    8.71747   19.20989    0    0    0
     299      100        2  0.52000000   11.93961    8.69913   18.28109    0    0    0
     300      100        2  0.52000000   11.89091    9.58341   19.50902    0    0    0
     301      101        1 -1.04000000   14.31235   18.20844    3.89234    0    0    0
     302      101        2  0.52000000   13.95136   18.10685    4.77280    0    0    0
     303      101        2  0.52000000   13.73629   17.68470    3.33486    0    0    0
     304      102        1 -1.04000000   13.10449   -0.32086    7.80319    0    0    0
     305      102        2  0.52000000   12.76524   -0.26636    8.69638    0    0    0
     306      102        2  0.52000000   13.13027    0.58721    7.50043    0    0    0
     307      103        1 -1.04000000   14.25904    6.75436   13.15863    0    0    0
     308      103        2  0.52000000   13.34823    6.89243   13.41789    0    0    0
     309      103        2  0.52000000   14.39273    7.35320   12.42348    0    0    0
     310      104        1 -1.04000000    4.29390    6.25473    8.03653    0    0    0
     311      104        2  0.52000000    4.26575    5.34633    8.33629    0    0    0
     312      104        2  0.52000000    3.44035    6.39894    7.62717    0    0    0
     313      105        1 -1.04000000   13.14107   11.12198    0.65675    0    0    0
     314      105        2  0.52000000   12.42330   11.50183    1.16308    0    0    0
     315      105        2  0.52000000   13.43563   10.37619    1.18017    0    0    0
     316      106        1 -1.04000000   12.89578   14.28322    6.75195    0    0    0
     317      106        2  0.52000000   12.60838   14.16231    7.65673    0    0    0
     318      106        2  0.52000000   13.49583   13.55447    6.59132    0    0    0
     319      107        1 -1.04000000   17.19345    2.68499   15.87372    0    0    0
     320      107        2  0.52000000   17.52808    3.39939   16.41548    0    0    0
     321      107        2  0.52000000   16.27847    2.91562   15.71080    0    0    0
     322      108        1 -1.04000000   10.33635    7.88138   14.15938    0    0    0
     323      108        2  0.52000000    9.57196    8.24357   14.60701    0    0    0
     324      108        2  0.52000000   10.09169    7.87505   13.23362    0    0    0
     325      109        1 -1.04000000   19.30674   18.19322    3.85446    0    0    0
     326      109        2  0.52000000   19.25327   17.26494    4.08095    0    0    0
     327      109        2  0.52000000   18.43999   18.54184    4.06459    0    0    0
     328      110        1 -1.04000000   17.29190   19.09439   11.75817    0    0    0
     329      110        2  0.52000000   17.30308   19.08835   12.71508    0    0    0
     330      110        2  0.52000000   16.40501   18.81726   11.52675    0    0    0
     331      111        1 -1.04000000   16.03846    4.38613   13.04498    0    0    0
     332      111        2  0.52000000   16.73393    3.73535   12.95197    0    0    0
     333      111        2  0.52000000   15.22760    3.87852   13.00305    0    0    0
     334      112        1 -1.04000000   11.63275    6.06984    8.88665    0    0    0
     335      112        2  0.52000000   12.39329    6.64323    8.79364    0    0    0
     336      112        2  0.52000000   11.97396    5.28693    9.31971    0    0    0
     337      113        1 -1.04000000    0.73189   11.87522    8.25524    0    0    0
     338      113        2  0.52000000    0.63714   12.56167    7.59520    0    0    0