Created by /global/cfs/cdirs/m5056/rsb/codes/ATLAS-toolkit/scripts/createLammpsInput.pl on Thu Apr  9 14:47:58 2026

         861 atoms
         554 bonds
         267 angles

           6 atom types
           2 bond types
           1 angle types

		   0.000000  20.249490 xlo xhi
		   0.000000  20.249490 ylo yhi
		   0.000000  20.249490 zlo zhi

Masses

    1 1.5999E+01 # OW     
    2 1.0080E+00 # HW     
    3 6.9410E+00 # Li     
    4 3.9948E+01 # K_     
    5 1.5999E+01 # O_3    
    6 1.0080E+00 # H_     

Atoms

       1        1        1 -1.04000000   13.70968   16.82757   16.19642    0    0    0
       2        1        2  0.52000000   13.64890   17.33385   15.38659    0    0    0
       3        1        2  0.52000000   14.64142   16.83858   16.41700    0    0    0
       4        2        1 -1.04000000   15.31607    0.92005   12.78480    0    0    0
       5        2        2  0.52000000   14.43031    0.57479   12.67496    0    0    0
       6        2        2  0.52000000   15.25362    1.50515   13.54024    0    0    0
       7        3        1 -1.04000000   19.22563   17.27817   12.84406    0    0    0
       8        3        2  0.52000000   19.34011   16.83388   13.68391    0    0    0
       9        3        2  0.52000000   18.43426   16.88795   12.47204    0    0    0
      10        4        1 -1.04000000    8.95028    3.84929   12.35696    0    0    0
      11        4        2  0.52000000    9.67822    3.69904   11.75415    0    0    0
      12        4        2  0.52000000    8.37150    4.45167   11.88889    0    0    0
      13        5        1 -1.04000000    9.14453    7.35042   13.09443    0    0    0
      14        5        2  0.52000000    8.32485    7.15843   12.63933    0    0    0
      15        5        2  0.52000000    9.53061    6.49115   13.26624    0    0    0
      16        6        1 -1.04000000    8.10902    8.73777   18.73176    0    0    0
      17        6        2  0.52000000    7.90663    8.58236   19.65411    0    0    0
      18        6        2  0.52000000    7.98434    9.67987   18.61413    0    0    0
      19        7        1 -1.04000000   16.65841   11.99345    7.81059    0    0    0
      20        7        2  0.52000000   17.42283   11.43805    7.65878    0    0    0
      21        7        2  0.52000000   16.91875   12.56850    8.53063    0    0    0
      22        8        1 -1.04000000   11.33597    3.90434    1.82514    0    0    0
      23        8        2  0.52000000   11.12690    4.71565    2.28765    0    0    0
      24        8        2  0.52000000   10.53713    3.38000    1.88722    0    0    0
      25        9        1 -1.04000000   18.12312   13.76140   15.28375    0    0    0
      26        9        2  0.52000000   18.18336   13.62663   14.33820    0    0    0
      27        9        2  0.52000000   17.69351   14.61197   15.37805    0    0    0
      28       10        1 -1.04000000   16.88733    7.12549   15.64764    0    0    0
      29       10        2  0.52000000   17.55742    7.50319   16.21699    0    0    0
      30       10        2  0.52000000   16.55525    6.37132   16.13537    0    0    0
      31       11        1 -1.04000000   18.70917    3.17306   19.19512    0    0    0
      32       11        2  0.52000000   19.27222    2.45963   19.49488    0    0    0
      33       11        2  0.52000000   19.01861    3.36731   18.31000    0    0    0
      34       12        1 -1.04000000   12.68426   15.92834    6.78142    0    0    0
      35       12        2  0.52000000   12.74775   15.92777    7.73631    0    0    0
      36       12        2  0.52000000   13.56799   16.14389    6.48227    0    0    0
      37       13        1 -1.04000000   18.78133   19.68577   14.07776    0    0    0
      38       13        2  0.52000000   19.53517   20.01079   14.56964    0    0    0
      39       13        2  0.52000000   18.68350   20.30344   13.35261    0    0    0
      40       14        1 -1.04000000    2.94634    4.01078    0.61321    0    0    0
      41       14        2  0.52000000    3.64295    4.42817    1.11954    0    0    0
      42       14        2  0.52000000    2.41071    3.56105    1.26725    0    0    0
      43       15        1 -1.04000000   10.74639    1.02764   14.70416    0    0    0
      44       15        2  0.52000000   10.55809    0.82099   15.61942    0    0    0
      45       15        2  0.52000000   11.69552    1.15137   14.67642    0    0    0
      46       16        1 -1.04000000   13.01529    9.26692    4.71518    0    0    0
      47       16        2  0.52000000   12.90066    9.41758    5.65327    0    0    0
      48       16        2  0.52000000   13.08405    8.31550    4.63154    0    0    0
      49       17        1 -1.04000000    4.61904    7.91530    8.98285    0    0    0
      50       17        2  0.52000000    5.32153    7.56709    8.43413    0    0    0
      51       17        2  0.52000000    5.05944    8.51761    9.58302    0    0    0
      52       18        1 -1.04000000    2.76617    4.24434   14.19552    0    0    0
      53       18        2  0.52000000    2.57693    3.34761   13.91999    0    0    0
      54       18        2  0.52000000    3.65689    4.40806   13.88449    0    0    0
      55       19        1 -1.04000000   16.82864   -0.28367    2.20681    0    0    0
      56       19        2  0.52000000   16.45926    0.56272    1.95572    0    0    0
      57       19        2  0.52000000   17.71209   -0.27905    1.83747    0    0    0
      58       20        1 -1.04000000   15.80040    9.19985    9.73014    0    0    0
      59       20        2  0.52000000   16.75018    9.14093    9.83157    0    0    0
      60       20        2  0.52000000   15.44941    8.65922   10.43828    0    0    0
      61       21        1 -1.04000000   15.15429   14.15610    5.32315    0    0    0
      62       21        2  0.52000000   15.21486   14.48628    4.42696    0    0    0
      63       21        2  0.52000000   14.63085   13.35762    5.24989    0    0    0
      64       22        1 -1.04000000   14.94985   14.12015   14.63169    0    0    0
      65       22        2  0.52000000   15.29113   13.27781   14.93145    0    0    0
      66       22        2  0.52000000   14.75903   14.60204   15.43686    0    0    0
      67       23        1 -1.04000000    6.79334   16.09124    9.68130    0    0    0
      68       23        2  0.52000000    6.76100   15.27981   10.18763    0    0    0
      69       23        2  0.52000000    7.44565   16.62895   10.13107    0    0    0
      70       24        1 -1.04000000   11.00186    2.38250    0.92069    0    0    0
      71       24        2  0.52000000   10.42043    1.91097    1.51689    0    0    0
      72       24        2  0.52000000   11.57771    1.70652    0.56241    0    0    0
      73       25        1 -1.04000000   18.21597    7.19274    8.73768    0    0    0
      74       25        2  0.52000000   17.88941    7.51500    9.57753    0    0    0
      75       25        2  0.52000000   17.89463    6.29226    8.68479    0    0    0
      76       26        1 -1.04000000   17.64961   15.16186    1.93974    0    0    0
      77       26        2  0.52000000   18.50352   15.49470    1.66422    0    0    0
      78       26        2  0.52000000   17.84687   14.34344    2.39604    0    0    0
      79       27        1 -1.04000000   16.77777   18.75964    4.21317    0    0    0
      80       27        2  0.52000000   16.48852   19.45578    3.62362    0    0    0
      81       27        2  0.52000000   17.73371   18.78458    4.16320    0    0    0
      82       28        1 -1.04000000   16.66307    8.15095    5.12764    0    0    0
      83       28        2  0.52000000   17.02745    8.19633    4.24389    0    0    0
      84       28        2  0.52000000   17.30948    7.65272    5.62848    0    0    0
      85       29        1 -1.04000000   11.11730    1.79455    5.31086    0    0    0
      86       29        2  0.52000000   10.60025    2.59980    5.30239    0    0    0
      87       29        2  0.52000000   11.28246    1.60565    4.38675    0    0    0
      88       30        1 -1.04000000    1.13037   10.89828   11.64608    0    0    0
      89       30        2  0.52000000    1.17989   11.75803   12.06349    0    0    0
      90       30        2  0.52000000    0.68974   10.34368   12.29043    0    0    0
      91       31        1 -1.04000000    3.24350    1.71508    3.11014    0    0    0
      92       31        2  0.52000000    2.66988    2.24240    3.66578    0    0    0
      93       31        2  0.52000000    3.08662    2.04252    2.22408    0    0    0
      94       32        1 -1.04000000    2.14613   17.05410   16.35822    0    0    0
      95       32        2  0.52000000    2.10639   16.23853   15.85910    0    0    0
      96       32        2  0.52000000    1.74748   17.70737   15.78268    0    0    0
      97       33        1 -1.04000000   18.98087   11.93240    6.61573    0    0    0
      98       33        2  0.52000000   18.54256   11.45135    7.31739    0    0    0
      99       33        2  0.52000000   19.47657   12.61626    7.06688    0    0    0
     100       34        1 -1.04000000   10.71778   11.21778   11.15977    0    0    0
     101       34        2  0.52000000   10.74537   10.85162   10.27602    0    0    0
     102       34        2  0.52000000   11.53685   10.93061   11.56421    0    0    0
     103       35        1 -1.04000000    3.69608   -0.15198    9.80728    0    0    0
     104       35        2  0.52000000    3.85201   -0.15612   10.75149    0    0    0
     105       35        2  0.52000000    4.45191    0.30809    9.44123    0    0    0
     106       36        1 -1.04000000    1.04045    7.92305    5.61915    0    0    0
     107       36        2  0.52000000    1.18570    8.75635    6.06678    0    0    0
     108       36        2  0.52000000    0.77385    7.32060    6.31406    0    0    0
     109       37        1 -1.04000000   13.99917   15.66252    2.80325    0    0    0
     110       37        2  0.52000000   14.15674   15.79500    3.73784    0    0    0
     111       37        2  0.52000000   13.84409   16.54247    2.45891    0    0    0
     112       38        1 -1.04000000    7.61959   11.05209    6.07193    0    0    0
     113       38        2  0.52000000    8.04979   10.97907    5.22020    0    0    0
     114       38        2  0.52000000    8.33062   10.96884    6.70787    0    0    0
     115       39        1 -1.04000000    9.25837    1.28414    1.92852    0    0    0
     116       39        2  0.52000000    8.86481    1.04833    2.76837    0    0    0
     117       39        2  0.52000000    8.87682    0.66752    1.30311    0    0    0
     118       40        1 -1.04000000   12.22124   10.93210    6.31472    0    0    0
     119       40        2  0.52000000   11.66522   10.31091    5.84481    0    0    0
     120       40        2  0.52000000   12.11355   11.75698    5.84047    0    0    0
     121       41        1 -1.04000000   16.70606   14.13331   19.22007    0    0    0
     122       41        2  0.52000000   16.93230   13.22205   19.03491    0    0    0
     123       41        2  0.52000000   17.36164   14.64464   18.74502    0    0    0
     124       42        1 -1.04000000    5.06667   10.68087   10.21520    0    0    0
     125       42        2  0.52000000    5.44295   10.90183    9.36348    0    0    0
     126       42        2  0.52000000    4.49038   11.41730   10.42132    0    0    0
     127       43        1 -1.04000000    4.20191   10.05247    1.33027    0    0    0
     128       43        2  0.52000000    3.91670    9.22483    0.94361    0    0    0
     129       43        2  0.52000000    3.88139   10.72269    0.72612    0    0    0
     130       44        1 -1.04000000    9.02069    6.36563    0.13598    0    0    0
     131       44        2  0.52000000    8.27257    5.76980    0.16986    0    0    0
     132       44        2  0.52000000    9.70674    5.86457   -0.30584    0    0    0
     133       45        1 -1.04000000   19.10709    0.33902   12.83813    0    0    0
     134       45        2  0.52000000   19.29043    0.02994   13.72509    0    0    0
     135       45        2  0.52000000   18.60249   -0.36896   12.43678    0    0    0
     136       46        1 -1.04000000    6.72029   15.19566    6.18995    0    0    0
     137       46        2  0.52000000    7.30324   15.52424    5.50581    0    0    0
     138       46        2  0.52000000    6.97647   14.28010    6.30424    0    0    0
     139       47        1 -1.04000000   10.20967    6.03393   15.67214    0    0    0
     140       47        2  0.52000000    9.97201    5.23053   16.13465    0    0    0
     141       47        2  0.52000000    9.81832    6.73555   16.19320    0    0    0
     142       48        1 -1.04000000    5.35815   12.96412    9.84820    0    0    0
     143       48        2  0.52000000    4.57087   12.47325    9.61349    0    0    0
     144       48        2  0.52000000    5.07098   13.56263   10.53831    0    0    0
     145       49        1 -1.04000000   17.30272    7.04276   10.75682    0    0    0
     146       49        2  0.52000000   17.32414    6.96532   11.71045    0    0    0
     147       49        2  0.52000000   16.37314    6.99192   10.53273    0    0    0
     148       50        1 -1.04000000    0.74897   -0.03117    1.29768    0    0    0
     149       50        2  0.52000000    0.56829   -0.14607    0.36495    0    0    0
     150       50        2  0.52000000    1.68274    0.17724    1.33737    0    0    0
     151       51        1 -1.04000000   17.89583    3.88483    3.35845    0    0    0
     152       51        2  0.52000000   18.43135    3.40974    2.72335    0    0    0
     153       51        2  0.52000000   17.67282    4.70543    2.91820    0    0    0
     154       52        1 -1.04000000    6.68132   12.96415   12.77693    0    0    0
     155       52        2  0.52000000    6.72514   13.21553   13.69929    0    0    0
     156       52        2  0.52000000    7.59354   12.82032   12.52378    0    0    0
     157       53        1 -1.04000000    1.65626    4.86379    6.87394    0    0    0
     158       53        2  0.52000000    1.82690    5.38895    7.65556    0    0    0
     159       53        2  0.52000000    2.51684    4.74726    6.47050    0    0    0
     160       54        1 -1.04000000   14.91630    8.32616   14.19803    0    0    0
     161       54        2  0.52000000   14.74994    8.14358   13.27346    0    0    0
     162       54        2  0.52000000   15.33376    7.53027   14.52851    0    0    0
     163       55        1 -1.04000000   17.05287    2.71610   11.26307    0    0    0
     164       55        2  0.52000000   16.98198    3.65693   11.42323    0    0    0
     165       55        2  0.52000000   16.96515    2.62697   10.31370    0    0    0
     166       56        1 -1.04000000   14.01592    4.95390   15.61241    0    0    0
     167       56        2  0.52000000   13.90393    4.27600   16.27856    0    0    0
     168       56        2  0.52000000   14.08016    5.77010   16.10903    0    0    0
     169       57        1 -1.04000000    6.12557    1.84527   11.66400    0    0    0
     170       57        2  0.52000000    6.46586    1.68770   12.54447    0    0    0
     171       57        2  0.52000000    5.40857    2.46703   11.79153    0    0    0
     172       58        1 -1.04000000   15.88647   10.93772   15.63144    0    0    0
     173       58        2  0.52000000   15.57201   10.50086   16.42272    0    0    0
     174       58        2  0.52000000   16.54151   11.56142   15.94584    0    0    0
     175       59        1 -1.04000000    6.28959   11.25413    3.06450    0    0    0
     176       59        2  0.52000000    5.79753   11.12034    2.25466    0    0    0
     177       59        2  0.52000000    5.91289   10.62553    3.68084    0    0    0
     178       60        1 -1.04000000   13.18633   12.08863   16.66830    0    0    0
     179       60        2  0.52000000   13.55605   12.02587   17.54876    0    0    0
     180       60        2  0.52000000   12.25761   11.88550   16.78294    0    0    0
     181       61        1 -1.04000000    2.06272    5.70896   19.25292    0    0    0
     182       61        2  0.52000000    1.47317    6.45596   19.35435    0    0    0
     183       61        2  0.52000000    2.46411    5.83508   18.39274    0    0    0
     184       62        1 -1.04000000   17.10170   17.27358    9.25964    0    0    0
     185       62        2  0.52000000   16.94792   16.34269    9.41980    0    0    0
     186       62        2  0.52000000   16.95038   17.38374    8.32055    0    0    0
     187       63        1 -1.04000000    8.26394    0.15943    5.76017    0    0    0
     188       63        2  0.52000000    7.70014   -0.59527    5.59167    0    0    0
     189       63        2  0.52000000    8.03592    0.43584    6.64817    0    0    0
     190       64        1 -1.04000000    8.06080   14.21080    8.67678    0    0    0
     191       64        2  0.52000000    7.79324   14.52619    9.53979    0    0    0
     192       64        2  0.52000000    8.14596   13.26301    8.78342    0    0    0
     193       65        1 -1.04000000    7.73161   15.90257   14.73340    0    0    0
     194       65        2  0.52000000    7.59540   16.07834   15.66420    0    0    0
     195       65        2  0.52000000    8.67299   16.01909   14.60240    0    0    0
     196       66        1 -1.04000000    2.62217   19.99114   10.09884    0    0    0
     197       66        2  0.52000000    3.17634   20.76101    9.97218    0    0    0
     198       66        2  0.52000000    3.20149   19.24785    9.92898    0    0    0
     199       67        1 -1.04000000   -0.29375    3.91923    3.75549    0    0    0
     200       67        2  0.52000000    0.57138    4.26530    3.53724    0    0    0
     201       67        2  0.52000000   -0.27763    3.81547    4.70727    0    0    0
     202       68        1 -1.04000000    9.92742    8.80882   13.33284    0    0    0
     203       68        2  0.52000000   10.67275    8.69584   12.74329    0    0    0
     204       68        2  0.52000000    9.39983    9.49534   12.92386    0    0    0
     205       69        1 -1.04000000   15.86615   19.72354    5.75863    0    0    0
     206       69        2  0.52000000   15.95208   19.67807    6.71068    0    0    0
     207       69        2  0.52000000   16.18177   20.59839    5.53068    0    0    0
     208       70        1 -1.04000000    8.96309    5.37254   17.88841    0    0    0
     209       70        2  0.52000000    8.56902    4.94767   18.65002    0    0    0
     210       70        2  0.52000000    9.46789    4.67979   17.46157    0    0    0
     211       71        1 -1.04000000    1.61496    5.98387   10.93609    0    0    0
     212       71        2  0.52000000    2.07442    6.46200   11.62612    0    0    0
     213       71        2  0.52000000    2.31062    5.55413   10.43779    0    0    0
     214       72        1 -1.04000000   14.36278    7.10682   14.09787    0    0    0
     215       72        2  0.52000000   13.55987    7.22854   14.60421    0    0    0
     216       72        2  0.52000000   14.07734    6.66464   13.29792    0    0    0
     217       73        1 -1.04000000   18.75566    8.22602   11.79550    0    0    0
     218       73        2  0.52000000   18.64371    7.90116   12.68869    0    0    0
     219       73        2  0.52000000   19.60062    7.87282   11.51581    0    0    0
     220       74        1 -1.04000000   19.28149   10.80878   10.19183    0    0    0
     221       74        2  0.52000000   19.29359   11.11232    9.28432    0    0    0
     222       74        2  0.52000000   18.42492   11.07891   10.52385    0    0    0
     223       75        1 -1.04000000   19.68332   10.99826   13.77127    0    0    0
     224       75        2  0.52000000   19.71619   10.94395   14.72617    0    0    0
     225       75        2  0.52000000   20.60048   11.05779   13.50256    0    0    0
     226       76        1 -1.04000000   12.38665   12.94520    9.98981    0    0    0
     227       76        2  0.52000000   11.85086   13.19906   10.74104    0    0    0
     228       76        2  0.52000000   11.76249   12.85574    9.26915    0    0    0
     229       77        1 -1.04000000    3.84146   15.81224    2.69633    0    0    0
     230       77        2  0.52000000    3.67253   15.66764    3.62714    0    0    0
     231       77        2  0.52000000    4.48601   16.52012    2.67653    0    0    0
     232       78        1 -1.04000000    2.01649    3.62028   16.90975    0    0    0
     233       78        2  0.52000000    1.23550    4.15663   17.04480    0    0    0
     234       78        2  0.52000000    2.74802    4.22309   17.04546    0    0    0
     235       79        1 -1.04000000   14.01898    3.29745   17.74748    0    0    0
     236       79        2  0.52000000   13.79943    3.33272   18.67829    0    0    0
     237       79        2  0.52000000   14.18159    2.36983   17.57423    0    0    0
     238       80        1 -1.04000000   12.29360   17.83820    3.79945    0    0    0
     239       80        2  0.52000000   12.19053   17.88704    4.74963    0    0    0
     240       80        2  0.52000000   11.51586   18.27476    3.45092    0    0    0
     241       81        1 -1.04000000    2.34431    9.81963   19.96103    0    0    0
     242       81        2  0.52000000    2.10269   10.69297   19.65323    0    0    0
     243       81        2  0.52000000    1.55300    9.48740   20.38574    0    0    0
     244       82        1 -1.04000000   15.79228    4.21714    0.24961    0    0    0
     245       82        2  0.52000000   15.75578    4.22811   -0.70663    0    0    0
     246       82        2  0.52000000   16.45194    3.55476    0.45702    0    0    0
     247       83        1 -1.04000000    1.21646   12.73645    2.19049    0    0    0
     248       83        2  0.52000000    1.22909   13.68797    2.29192    0    0    0
     249       83        2  0.52000000    0.55445   12.57558    1.51759    0    0    0
     250       84        1 -1.04000000    4.22985   13.02121   10.68485    0    0    0
     251       84        2  0.52000000    4.49482   12.88987   11.59501    0    0    0
     252       84        2  0.52000000    3.27533   13.08892   10.72015    0    0    0
     253       85        1 -1.04000000    1.86466    8.71044   15.22458    0    0    0
     254       85        2  0.52000000    2.52069    9.36936   15.45107    0    0    0
     255       85        2  0.52000000    1.61466    8.92020   14.32435    0    0    0
     256       86        1 -1.04000000    2.31577   13.21365    4.08512    0    0    0
     257       86        2  0.52000000    1.52541   13.10099    4.61283    0    0    0
     258       86        2  0.52000000    2.15883   12.68536    3.30205    0    0    0
     259       87        1 -1.04000000   14.85675   17.88235   15.65614    0    0    0
     260       87        2  0.52000000   14.36830   18.10851   16.44742    0    0    0
     261       87        2  0.52000000   15.77496   18.00914   15.89644    0    0    0
     262       88        1 -1.04000000   18.12862    5.28580   17.23319    0    0    0
     263       88        2  0.52000000   18.25030    5.20223   16.28764    0    0    0
     264       88        2  0.52000000   17.62108    4.51196   17.47917    0    0    0
     265       89        1 -1.04000000   11.74281    7.29032    3.04657    0    0    0
     266       89        2  0.52000000   11.62274    6.47387    2.56198    0    0    0
     267       89        2  0.52000000   12.63445    7.23581    3.39145    0    0    0
     268       90        1 -1.04000000    9.21744   19.29512   11.13499    0    0    0
     269       90        2  0.52000000    8.48635   19.34048   10.51913    0    0    0
     270       90        2  0.52000000    9.29621   18.36440   11.34588    0    0    0
     271       91        1 -1.04000000    0.74174    7.89927    2.27524    0    0    0
     272       91        2  0.52000000    0.64527    7.82383    1.32610    0    0    0
     273       91        2  0.52000000    1.61299    8.27690    2.39866    0    0    0
     274       92        1 -1.04000000   12.17992   14.82211   18.70237    0    0    0
     275       92        2  0.52000000   11.26473   15.09724   18.75317    0    0    0
     276       92        2  0.52000000   12.55535   15.08065   19.54447    0    0    0
     277       93        1 -1.04000000    5.75572    7.15247    1.26397    0    0    0
     278       93        2  0.52000000    6.58965    6.71115    1.42413    0    0    0
     279       93        2  0.52000000    5.65464    7.13638    0.31189    0    0    0
     280       94        1 -1.04000000   14.78441    2.32296    4.04267    0    0    0
     281       94        2  0.52000000   15.23927    2.02229    3.25619    0    0    0
     282       94        2  0.52000000   14.97633    1.65475    4.70115    0    0    0
     283       95        1 -1.04000000    4.08519   16.36941   12.09424    0    0    0
     284       95        2  0.52000000    4.04154   15.61164   12.67709    0    0    0
     285       95        2  0.52000000    3.87327   16.01895   11.22867    0    0    0
     286       96        1 -1.04000000   11.69247   13.91600    0.77424    0    0    0
     287       96        2  0.52000000   11.76313   13.82646    1.72442    0    0    0
     288       96        2  0.52000000   12.54441   14.25754    0.50134    0    0    0
     289       97        1 -1.04000000    3.08774    2.63744   11.88401    0    0    0
     290       97        2  0.52000000    3.50672    3.45524   11.61661    0    0    0
     291       97        2  0.52000000    2.40554    2.90732   12.49939    0    0    0
     292       98        1 -1.04000000    0.83455    5.73631    0.76401    0    0    0
     293       98        2  0.52000000    0.93805    5.68838    1.71419    0    0    0
     294       98        2  0.52000000    1.22741    6.57531    0.52181    0    0    0
     295       99        1 -1.04000000    2.85565   13.18885    6.69000    0    0    0
     296       99        2  0.52000000    3.12369   13.56121    7.52985    0    0    0
     297       99        2  0.52000000    3.02066   12.24993    6.78015    0    0    0
     298      100        1 -1.04000000   16.05697    8.30462   17.76217    0    0    0
     299      100        2  0.52000000   16.06825    8.29877   18.71908    0    0    0
     300      100        2  0.52000000   15.87477    7.39661   17.51875    0    0    0
     301      101        1 -1.04000000   11.97424   13.64072    5.15117    0    0    0
     302      101        2  0.52000000   12.09802   13.88232    4.23348    0    0    0
     303      101        2  0.52000000   11.92774   14.47697    5.61534    0    0    0
     304      102        1 -1.04000000   10.33634    7.90400    8.17396    0    0    0
     305      102        2  0.52000000    9.82323    8.70311    8.29222    0    0    0
     306      102        2  0.52000000    9.84043    7.39289    7.53383    0    0    0
     307      103        1 -1.04000000   13.04457   18.27665   11.27218    0    0    0
     308      103        2  0.52000000   12.89843   17.34057   11.40723    0    0    0
     309      103        2  0.52000000   13.05699   18.38279   10.32059    0    0    0
     310      104        1 -1.04000000    4.09571   14.72283   19.25811    0    0    0
     311      104        2  0.52000000    4.36003   14.78474   18.34042    0    0    0
     312      104        2  0.52000000    3.54426   15.49243   19.40148    0    0    0
     313      105        1 -1.04000000    5.95914    3.63552   13.13450    0    0    0
     314      105        2  0.52000000    5.74083    4.45272   13.58213    0    0    0
     315      105        2  0.52000000    6.30003    3.91175   12.28337    0    0    0
     316      106        1 -1.04000000   11.64454   18.92210   18.85795    0    0    0
     317      106        2  0.52000000   11.95297   18.81121   19.75707    0    0    0
     318      106        2  0.52000000   12.40249   19.26670   18.38499    0    0    0
     319      107        1 -1.04000000   14.09747    5.31612    5.79224    0    0    0
     320      107        2  0.52000000   14.68030    4.64132    6.13979    0    0    0
     321      107        2  0.52000000   13.22223    5.04256    6.06797    0    0    0
     322      108        1 -1.04000000    8.88851   10.71041    9.23729    0    0    0
     323      108        2  0.52000000    8.50694   11.58474    9.16117    0    0    0
     324      108        2  0.52000000    9.60455   10.70485    8.60154    0    0    0
     325      109        1 -1.04000000    1.07606    9.01910    3.38269    0    0    0
     326      109        2  0.52000000    1.69915    9.07438    2.65843    0    0    0
     327      109        2  0.52000000    0.22480    8.90652    2.95888    0    0    0
     328      110        1 -1.04000000   17.71891   19.14244    9.76913    0    0    0
     329      110        2  0.52000000   17.75928   19.16567   10.72499    0    0    0
     330      110        2  0.52000000   18.52181   18.69189    9.50588    0    0    0
     331      111        1 -1.04000000    3.80956   18.65975   16.97621    0    0    0
     332      111        2  0.52000000    4.17784   19.07120   17.75783    0    0    0
     333      111        2  0.52000000    4.01260   19.26905   16.26596    0    0    0
     334      112        1 -1.04000000   19.08105   16.09088    4.62882    0    0    0
     335      112        2  0.52000000   19.03651   16.68208    5.38005    0    0    0
     336      112        2  0.52000000   18.88244   15.22704    4.99113    0    0    0
     337      113        1 -1.04000000   15.07862    8.66970    0.19318    0    0    0
     338      113        2  0.52000000   15.66679    9.17316   -0.36934    0    0    0