Created by /global/cfs/cdirs/m5056/rsb/codes/ATLAS-toolkit/scripts/createLammpsInput.pl on Thu Apr  9 14:47:55 2026

         837 atoms
         538 bonds
         259 angles

           6 atom types
           2 bond types
           1 angle types

		   0.000000  20.249880 xlo xhi
		   0.000000  20.249880 ylo yhi
		   0.000000  20.249880 zlo zhi

Masses

    1 1.5999E+01 # OW     
    2 1.0080E+00 # HW     
    3 6.9410E+00 # Li     
    4 3.9948E+01 # K_     
    5 1.5999E+01 # O_3    
    6 1.0080E+00 # H_     

Atoms

       1        1        1 -1.04000000    3.25962    1.77998    1.19181    0    0    0
       2        1        2  0.52000000    3.04691    1.75540    0.25907    0    0    0
       3        1        2  0.52000000    2.69347    2.46462    1.54912    0    0    0
       4        2        1 -1.04000000   18.71069   12.07919    2.25027    0    0    0
       5        2        2  0.52000000   18.64690   11.94607    1.30472    0    0    0
       6        2        2  0.52000000   19.64241   11.97473    2.44502    0    0    0
       7        3        1 -1.04000000   12.36405   18.99966   10.14167    0    0    0
       8        3        2  0.52000000   11.68383   19.65914   10.27673    0    0    0
       9        3        2  0.52000000   11.95212   18.34120    9.58160    0    0    0
      10        4        1 -1.04000000    9.08969    8.24216    0.29312    0    0    0
      11        4        2  0.52000000    8.53785    7.46102    0.32699    0    0    0
      12        4        2  0.52000000    9.37246    8.29682   -0.62011    0    0    0
      13        5        1 -1.04000000    9.92753   10.77597   11.31171    0    0    0
      14        5        2  0.52000000    9.69937   10.60077   10.39897    0    0    0
      15        5        2  0.52000000   10.37311   11.62325   11.28933    0    0    0
      16        6        1 -1.04000000    7.03200    5.97671    9.38863    0    0    0
      17        6        2  0.52000000    7.65012    6.36975    8.77277    0    0    0
      18        6        2  0.52000000    6.31788    5.65355    8.83860    0    0    0
      19        7        1 -1.04000000    6.64530   17.86110   11.91342    0    0    0
      20        7        2  0.52000000    7.36589   18.04340   11.31062    0    0    0
      21        7        2  0.52000000    6.98882   18.09550   12.77596    0    0    0
      22        8        1 -1.04000000   15.85066    7.15252   17.32717    0    0    0
      23        8        2  0.52000000   15.81983    7.51842   16.44342    0    0    0
      24        8        2  0.52000000   16.32950    6.32906   17.22941    0    0    0
      25        9        1 -1.04000000   15.01556    8.31810   18.77378    0    0    0
      26        9        2  0.52000000   15.70170    7.97039   19.34313    0    0    0
      27        9        2  0.52000000   14.28273    7.71151   18.88309    0    0    0
      28       10        1 -1.04000000   10.36915   16.94570    6.11567    0    0    0
      29       10        2  0.52000000   10.05019   17.09339    5.22555    0    0    0
      30       10        2  0.52000000    9.58066   16.96091    6.65878    0    0    0
      31       11        1 -1.04000000    6.23330    0.12774    9.71389    0    0    0
      32       11        2  0.52000000    6.36566    0.21027   10.65809    0    0    0
      33       11        2  0.52000000    5.40105   -0.33801    9.62801    0    0    0
      34       12        1 -1.04000000   17.94605   19.28618   12.73963    0    0    0
      35       12        2  0.52000000   18.04769   19.36861   13.68765    0    0    0
      36       12        2  0.52000000   18.00626   18.34520   12.57272    0    0    0
      37       13        1 -1.04000000   16.84156    7.29321   12.20379    0    0    0
      38       13        2  0.52000000   17.17641    7.31695   11.30759    0    0    0
      39       13        2  0.52000000   16.98203    6.38984   12.48862    0    0    0
      40       14        1 -1.04000000    1.09828    4.04179    2.62424    0    0    0
      41       14        2  0.52000000    0.24343    4.19470    3.02634    0    0    0
      42       14        2  0.52000000    1.65829    3.76351    3.34942    0    0    0
      43       15        1 -1.04000000    7.71732    2.09884    1.74916    0    0    0
      44       15        2  0.52000000    7.63165    1.91165    2.68375    0    0    0
      45       15        2  0.52000000    8.65103    1.98951    1.56709    0    0    0
      46       16        1 -1.04000000   15.93567    5.66636    0.80727    0    0    0
      47       16        2  0.52000000   15.47489    5.99495    1.57900    0    0    0
      48       16        2  0.52000000   16.58945    6.33870    0.61373    0    0    0
      49       17        1 -1.04000000    3.78837    6.95708    8.32553    0    0    0
      50       17        2  0.52000000    4.30405    6.29164    7.87043    0    0    0
      51       17        2  0.52000000    3.90758    7.75128    7.80403    0    0    0
      52       18        1 -1.04000000    3.38428   11.06907   14.01267    0    0    0
      53       18        2  0.52000000    2.94430   10.22870   13.88601    0    0    0
      54       18        2  0.52000000    2.67142   11.70223   14.10133    0    0    0
      55       19        1 -1.04000000    1.33150   16.88050    8.16860    0    0    0
      56       19        2  0.52000000    1.10293   16.84998    7.23980    0    0    0
      57       19        2  0.52000000    0.56556   17.26952    8.59160    0    0    0
      58       20        1 -1.04000000    2.15998   19.84705    5.32189    0    0    0
      59       20        2  0.52000000    2.18822   20.75807    5.03018    0    0    0
      60       20        2  0.52000000    1.65180   19.39488    4.64793    0    0    0
      61       21        1 -1.04000000   15.78926   19.01863   10.32840    0    0    0
      62       21        2  0.52000000   15.47351   19.06935    9.42641    0    0    0
      63       21        2  0.52000000   16.73723   18.91202   10.24519    0    0    0
      64       22        1 -1.04000000    1.37680   18.06273   13.08179    0    0    0
      65       22        2  0.52000000    0.71007   17.67911   13.65114    0    0    0
      66       22        2  0.52000000    0.91313   18.25816   12.26708    0    0    0
      67       23        1 -1.04000000    1.36594    2.05785    1.87612    0    0    0
      68       23        2  0.52000000    1.07119    1.88125    2.76931    0    0    0
      69       23        2  0.52000000    0.56288    2.06090    1.35457    0    0    0
      70       24        1 -1.04000000    9.09891   16.17433    7.66470    0    0    0
      71       24        2  0.52000000    9.66742   15.96423    8.40531    0    0    0
      72       24        2  0.52000000    8.23367   15.86145    7.92999    0    0    0
      73       25        1 -1.04000000    1.94800    3.65823    1.18190    0    0    0
      74       25        2  0.52000000    1.71483    4.53101    1.49770    0    0    0
      75       25        2  0.52000000    2.33718    3.81076    0.32039    0    0    0
      76       26        1 -1.04000000   17.81134   17.72359    0.20152    0    0    0
      77       26        2  0.52000000   17.70597   18.67236    0.26923    0    0    0
      78       26        2  0.52000000   18.48269   17.60405   -0.47074    0    0    0
      79       27        1 -1.04000000    8.06196   15.76416   14.69481    0    0    0
      80       27        2  0.52000000    8.68663   16.02047   15.37300    0    0    0
      81       27        2  0.52000000    7.25141   16.21537   14.93219    0    0    0
      82       28        1 -1.04000000    2.70481   14.97914    7.25501    0    0    0
      83       28        2  0.52000000    2.65303   15.11738    6.30946    0    0    0
      84       28        2  0.52000000    3.64216   14.90348    7.43552    0    0    0
      85       29        1 -1.04000000    8.16511    3.35392    6.00885    0    0    0
      86       29        2  0.52000000    7.65756    2.92719    6.69888    0    0    0
      87       29        2  0.52000000    8.17733    2.71888    5.29226    0    0    0
      88       30        1 -1.04000000   16.81224    4.03126   19.34113    0    0    0
      89       30        2  0.52000000   17.70140    3.71157   19.18933    0    0    0
      90       30        2  0.52000000   16.48635    4.25717   18.46953    0    0    0
      91       31        1 -1.04000000   12.22106   14.95231    1.68147    0    0    0
      92       31        2  0.52000000   12.48579   14.86239    2.59673    0    0    0
      93       31        2  0.52000000   11.29315   15.18530    1.72180    0    0    0
      94       32        1 -1.04000000    3.86170   17.25044   10.73401    0    0    0
      95       32        2  0.52000000    3.92187   17.37601   11.68082    0    0    0
      96       32        2  0.52000000    4.21643   16.37355   10.58517    0    0    0
      97       33        1 -1.04000000    7.63822   18.14378    8.03232    0    0    0
      98       33        2  0.52000000    8.16032   18.04562    7.23631    0    0    0
      99       33        2  0.52000000    8.20146   17.81060    8.73137    0    0    0
     100       34        1 -1.04000000    2.12116   18.29430   17.22652    0    0    0
     101       34        2  0.52000000    2.10530   18.25965   16.27027    0    0    0
     102       34        2  0.52000000    1.77354   17.44605   17.50321    0    0    0
     103       35        1 -1.04000000    4.98071    8.38064   12.08567    0    0    0
     104       35        2  0.52000000    4.32069    7.84537   11.64554    0    0    0
     105       35        2  0.52000000    5.69859    7.77398   12.26879    0    0    0
     106       36        1 -1.04000000   18.68047    2.94926   12.78107    0    0    0
     107       36        2  0.52000000   18.72885    3.05254   13.73125    0    0    0
     108       36        2  0.52000000   19.59067    2.99820   12.48768    0    0    0
     109       37        1 -1.04000000   18.81728    0.33036   11.10036    0    0    0
     110       37        2  0.52000000   18.60085   -0.26334   10.38167    0    0    0
     111       37        2  0.52000000   19.58188   -0.06703   11.51797    0    0    0
     112       38        1 -1.04000000   11.19201    7.69305   10.14668    0    0    0
     113       38        2  0.52000000   11.34391    8.13382    9.31092    0    0    0
     114       38        2  0.52000000   10.46409    8.17313   10.54239    0    0    0
     115       39        1 -1.04000000   14.71682   17.25821    3.92426    0    0    0
     116       39        2  0.52000000   15.60523   17.24248    3.56883    0    0    0
     117       39        2  0.52000000   14.67796   16.49930    4.50691    0    0    0
     118       40        1 -1.04000000    7.96794    7.96096    3.61264    0    0    0
     119       40        2  0.52000000    8.58981    7.52575    4.19549    0    0    0
     120       40        2  0.52000000    7.44225    8.51329    4.19187    0    0    0
     121       41        1 -1.04000000   19.07810    6.04142    1.38051    0    0    0
     122       41        2  0.52000000   18.43267    6.51914    0.85988    0    0    0
     123       41        2  0.52000000   19.48923    5.43944    0.75961    0    0    0
     124       42        1 -1.04000000   13.32084    5.80115   18.89939    0    0    0
     125       42        2  0.52000000   12.89356    6.50716   18.41480    0    0    0
     126       42        2  0.52000000   12.78560    5.69168   19.68581    0    0    0
     127       43        1 -1.04000000    8.77269    7.22781   10.77856    0    0    0
     128       43        2  0.52000000    9.72894    7.21088   10.81243    0    0    0
     129       43        2  0.52000000    8.49837    6.56132   11.40901    0    0    0
     130       44        1 -1.04000000    2.64357    1.90993    6.13208    0    0    0
     131       44        2  0.52000000    3.00886    1.73287    5.26545    0    0    0
     132       44        2  0.52000000    3.34757    2.35719    6.60247    0    0    0
     133       45        1 -1.04000000    6.99053   10.84522    5.35854    0    0    0
     134       45        2  0.52000000    6.37656   10.69566    4.63985    0    0    0
     135       45        2  0.52000000    7.63291   11.45912    5.00161    0    0    0
     136       46        1 -1.04000000    4.99463   19.28642    3.26559    0    0    0
     137       46        2  0.52000000    5.22292   18.36691    3.40064    0    0    0
     138       46        2  0.52000000    4.78245   19.34667    2.33377    0    0    0
     139       47        1 -1.04000000   14.14272    8.34705   -0.10857    0    0    0
     140       47        2  0.52000000   13.22445    8.09737   -0.00714    0    0    0
     141       47        2  0.52000000   14.63282    7.55558    0.11571    0    0    0
     142       48        1 -1.04000000    5.27559   15.75082    3.87932    0    0    0
     143       48        2  0.52000000    5.13185   16.08019    4.76628    0    0    0
     144       48        2  0.52000000    4.59256   16.16899    3.35440    0    0    0
     145       49        1 -1.04000000    0.17933   13.05134    4.34323    0    0    0
     146       49        2  0.52000000    0.51787   12.60640    3.56653    0    0    0
     147       49        2  0.52000000   -0.69719   13.34226    4.09024    0    0    0
     148       50        1 -1.04000000   14.06769    8.26132   14.28236    0    0    0
     149       50        2  0.52000000   14.26578    8.34261   13.34963    0    0    0
     150       50        2  0.52000000   13.66653    7.39607   14.36801    0    0    0
     151       51        1 -1.04000000    5.30445    0.24299   14.97048    0    0    0
     152       51        2  0.52000000    4.41406    0.37796   14.64670    0    0    0
     153       51        2  0.52000000    5.28149   -0.62094   15.38282    0    0    0
     154       52        1 -1.04000000    9.83713    3.21246   18.28449    0    0    0
     155       52        2  0.52000000    9.94671    3.45191   17.36443    0    0    0
     156       52        2  0.52000000   10.21616    2.33563   18.35108    0    0    0
     157       53        1 -1.04000000   14.09373   11.32479    3.80423    0    0    0
     158       53        2  0.52000000   13.94891   10.44813    3.44879    0    0    0
     159       53        2  0.52000000   13.95736   11.22708    4.74698    0    0    0
     160       54        1 -1.04000000   20.12769   11.26432    4.25774    0    0    0
     161       54        2  0.52000000   19.24026   10.91841    4.16474    0    0    0
     162       54        2  0.52000000   20.63205   10.81727    3.57752    0    0    0
     163       55        1 -1.04000000    3.21189    7.10540    3.68920    0    0    0
     164       55        2  0.52000000    2.54973    6.41634    3.74000    0    0    0
     165       55        2  0.52000000    3.23838    7.47826    4.57079    0    0    0
     166       56        1 -1.04000000   17.02237    7.31235    5.23354    0    0    0
     167       56        2  0.52000000   16.76029    7.28676    4.31348    0    0    0
     168       56        2  0.52000000   17.21734    6.40089    5.45299    0    0    0
     169       57        1 -1.04000000    9.67304   13.91494    7.19612    0    0    0
     170       57        2  0.52000000    9.75763   14.14701    6.27154    0    0    0
     171       57        2  0.52000000   10.56933   13.93805    7.53234    0    0    0
     172       58        1 -1.04000000   10.24845   14.96251   13.29912    0    0    0
     173       58        2  0.52000000    9.65584   14.30044   12.94368    0    0    0
     174       58        2  0.52000000   10.09571   15.73706   12.75720    0    0    0
     175       59        1 -1.04000000    9.77313    5.71531   18.85828    0    0    0
     176       59        2  0.52000000    9.79289    6.05835   19.75147    0    0    0
     177       59        2  0.52000000   10.43399    6.22634   18.39025    0    0    0
     178       60        1 -1.04000000   12.16009    6.67101    7.13688    0    0    0
     179       60        2  0.52000000   12.44370    7.57088    7.29704    0    0    0
     180       60        2  0.52000000   11.39620    6.75812    6.56608    0    0    0
     181       61        1 -1.04000000    4.33933   13.18436   10.05890    0    0    0
     182       61        2  0.52000000    4.20563   12.27526    9.79150    0    0    0
     183       61        2  0.52000000    3.45504   13.54038   10.14960    0    0    0
     184       62        1 -1.04000000   19.03375   14.62630    7.89131    0    0    0
     185       62        2  0.52000000   19.41120   15.04799    8.66304    0    0    0
     186       62        2  0.52000000   18.55505   15.32570    7.44565    0    0    0
     187       63        1 -1.04000000    1.69639    2.81283   14.84065    0    0    0
     188       63        2  0.52000000    1.73258    3.72095   15.14041    0    0    0
     189       63        2  0.52000000    2.57103    2.46621   15.01893    0    0    0
     190       64        1 -1.04000000   20.32572    9.85627    0.83921    0    0    0
     191       64        2  0.52000000   19.55012    9.37269    1.12284    0    0    0
     192       64        2  0.52000000   20.12416   10.77104    1.03795    0    0    0
     193       65        1 -1.04000000   16.82893   11.34905   19.96127    0    0    0
     194       65        2  0.52000000   16.96681   10.85071   20.76656    0    0    0
     195       65        2  0.52000000   17.20426   10.80024   19.27217    0    0    0
     196       66        1 -1.04000000   11.22822   18.21237   15.23541    0    0    0
     197       66        2  0.52000000   11.43218   17.88845   14.35830    0    0    0
     198       66        2  0.52000000   10.33961   17.89917   15.40630    0    0    0
     199       67        1 -1.04000000    0.07750   13.37893   15.05481    0    0    0
     200       67        2  0.52000000    0.17616   12.66423   15.68354    0    0    0
     201       67        2  0.52000000   -0.25366   12.95684   14.26165    0    0    0
     202       68        1 -1.04000000   14.98334    0.27216   20.27974    0    0    0
     203       68        2  0.52000000   15.35680    0.35615   19.40263    0    0    0
     204       68        2  0.52000000   14.65987   -0.62832   20.31764    0    0    0
     205       69        1 -1.04000000   16.04562   17.32164   11.78305    0    0    0
     206       69        2  0.52000000   15.41298   16.61484   11.65639    0    0    0
     207       69        2  0.52000000   16.54140   17.06351   12.56055    0    0    0
     208       70        1 -1.04000000   14.14699    0.36005    4.96311    0    0    0
     209       70        2  0.52000000   14.61217   -0.44023    5.20602    0    0    0
     210       70        2  0.52000000   13.24084    0.08018    4.83087    0    0    0
     211       71        1 -1.04000000    5.24755    7.30092   10.97234    0    0    0
     212       71        2  0.52000000    4.39578    7.20250   10.54733    0    0    0
     213       71        2  0.52000000    5.35667    6.49658   11.48033    0    0    0
     214       72        1 -1.04000000    9.89865   17.84430    3.65636    0    0    0
     215       72        2  0.52000000   10.77525   17.90645    4.03526    0    0    0
     216       72        2  0.52000000    9.32610   18.24926    4.30837    0    0    0
     217       73        1 -1.04000000   19.26805    1.79331    4.80499    0    0    0
     218       73        2  0.52000000   19.40514    2.57980    5.33270    0    0    0
     219       73        2  0.52000000   18.32680    1.62689    4.86231    0    0    0
     220       74        1 -1.04000000   16.00066    5.60954   18.01195    0    0    0
     221       74        2  0.52000000   16.73115    6.20196   18.18879    0    0    0
     222       74        2  0.52000000   15.26820    6.18850   17.79926    0    0    0
     223       75        1 -1.04000000    3.01349   10.30074   18.24895    0    0    0
     224       75        2  0.52000000    2.99284    9.36729   18.45894    0    0    0
     225       75        2  0.52000000    2.99367   10.33198   17.29210    0    0    0
     226       76        1 -1.04000000   15.09189    8.37967    6.00246    0    0    0
     227       76        2  0.52000000   14.89872    7.81914    6.75368    0    0    0
     228       76        2  0.52000000   15.00939    7.80118    5.24386    0    0    0
     229       77        1 -1.04000000    3.26536   16.77789    2.18125    0    0    0
     230       77        2  0.52000000    3.33769   17.19285    1.32193    0    0    0
     231       77        2  0.52000000    2.39694   17.02926    2.49682    0    0    0
     232       78        1 -1.04000000    7.17231   17.80224   18.28948    0    0    0
     233       78        2  0.52000000    6.74121   17.44624   17.51278    0    0    0
     234       78        2  0.52000000    7.08648   18.75152   18.19774    0    0    0
     235       79        1 -1.04000000   18.10358   14.36002   16.11071    0    0    0
     236       79        2  0.52000000   17.31379   13.87725   16.35362    0    0    0
     237       79        2  0.52000000   18.58264   13.76273   15.53567    0    0    0
     238       80        1 -1.04000000   17.30469   14.22702   11.09071    0    0    0
     239       80        2  0.52000000   17.02657   13.41995   11.52329    0    0    0
     240       80        2  0.52000000   16.66874   14.35304   10.38600    0    0    0
     241       81        1 -1.04000000   12.87382    6.76454   12.28503    0    0    0
     242       81        2  0.52000000   13.61468    6.62525   11.69548    0    0    0
     243       81        2  0.52000000   12.51150    7.61021   12.01950    0    0    0
     244       82        1 -1.04000000   15.86564    1.32718   15.83416    0    0    0
     245       82        2  0.52000000   15.60758    0.94783   16.67401    0    0    0
     246       82        2  0.52000000   16.52678    0.72499   15.49183    0    0    0
     247       83        1 -1.04000000    6.06444   18.32130    6.78736    0    0    0
     248       83        2  0.52000000    5.91962   18.26337    7.73156    0    0    0
     249       83        2  0.52000000    6.01594   17.41534    6.48108    0    0    0
     250       84        1 -1.04000000   12.16547    4.10685   14.66265    0    0    0
     251       84        2  0.52000000   12.44854    4.32823   15.54962    0    0    0
     252       84        2  0.52000000   11.38599    3.56492   14.78773    0    0    0
     253       85        1 -1.04000000    2.22376   -0.28206   10.15158    0    0    0
     254       85        2  0.52000000    2.23615    0.65154   10.36157    0    0    0
     255       85        2  0.52000000    1.54009   -0.36948    9.48684    0    0    0
     256       86        1 -1.04000000    3.96137    1.18664    7.65901    0    0    0
     257       86        2  0.52000000    3.91546    0.24425    7.81917    0    0    0
     258       86        2  0.52000000    4.12317    1.56911    8.52183    0    0    0
     259       87        1 -1.04000000   18.95100    1.86656   12.63614    0    0    0
     260       87        2  0.52000000   19.76871    1.93910   13.12802    0    0    0
     261       87        2  0.52000000   18.28030    2.19434   13.23584    0    0    0
     262       88        1 -1.04000000   17.05273   19.26874    1.72143    0    0    0
     263       88        2  0.52000000   17.14964   18.31970    1.64530    0    0    0
     264       88        2  0.52000000   16.79764   19.41156    2.63327    0    0    0
     265       89        1 -1.04000000   11.00316    5.36819    7.86951    0    0    0
     266       89        2  0.52000000   11.08364    5.06695    8.77429    0    0    0
     267       89        2  0.52000000   10.91320    4.56485    7.35620    0    0    0
     268       90        1 -1.04000000    2.15968    6.67684    3.84944    0    0    0
     269       90        2  0.52000000    2.09819    6.92449    4.77179    0    0    0
     270       90        2  0.52000000    1.74212    7.39867    3.37877    0    0    0
     271       91        1 -1.04000000   15.90347   15.37537    7.04881    0    0    0
     272       91        2  0.52000000   16.62293   15.01875    6.52818    0    0    0
     273       91        2  0.52000000   15.47360   14.60588    7.42301    0    0    0
     274       92        1 -1.04000000   11.93956    1.64896    1.83963    0    0    0
     275       92        2  0.52000000   12.76593    2.01396    2.15543    0    0    0
     276       92        2  0.52000000   11.29451    2.33708    2.00494    0    0    0
     277       93        1 -1.04000000   11.64769    0.95404   11.16237    0    0    0
     278       93        2  0.52000000   12.01491    0.48017   10.41642    0    0    0
     279       93        2  0.52000000   12.33740    1.56578   11.42120    0    0    0
     280       94        1 -1.04000000   12.69132   -0.19554   12.86185    0    0    0
     281       94        2  0.52000000   12.77010    0.25645   13.70170    0    0    0
     282       94        2  0.52000000   13.53857   -0.06091   12.43645    0    0    0
     283       95        1 -1.04000000   16.69410   15.75757   18.98411    0    0    0
     284       95        2  0.52000000   17.60857   15.56036   18.78236    0    0    0
     285       95        2  0.52000000   16.69734   16.68207   19.23354    0    0    0
     286       96        1 -1.04000000   11.90983    9.34757    0.15384    0    0    0
     287       96        2  0.52000000   11.72702    8.48128    0.51713    0    0    0
     288       96        2  0.52000000   12.36315    9.17115   -0.67097    0    0    0
     289       97        1 -1.04000000   18.82839   19.30682    3.82966    0    0    0
     290       97        2  0.52000000   19.49342   18.72728    3.45855    0    0    0
     291       97        2  0.52000000   18.67819   18.96591    4.71179    0    0    0
     292       98        1 -1.04000000    8.73002    2.73605    3.10021    0    0    0
     293       98        2  0.52000000    8.74241    3.66965    3.31020    0    0    0
     294       98        2  0.52000000    9.52757    2.59430    2.58959    0    0    0
     295       99        1 -1.04000000    2.94338   18.70607   14.25100    0    0    0
     296       99        2  0.52000000    2.94152   18.66801   13.29476    0    0    0
     297       99        2  0.52000000    3.11510   19.62592   14.45424    0    0    0
     298      100        1 -1.04000000    1.62168   10.92860   14.93382    0    0    0
     299      100        2  0.52000000    2.11801   10.76002   15.73450    0    0    0
     300      100        2  0.52000000    2.26031   11.31138   14.33168    0    0    0
     301      101        1 -1.04000000   12.81729   17.33284   14.90815    0    0    0
     302      101        2  0.52000000   12.81120   16.87409   15.74800    0    0    0
     303      101        2  0.52000000   13.37150   16.79307   14.34385    0    0    0
     304      102        1 -1.04000000   11.16496    8.27538   12.77739    0    0    0
     305      102        2  0.52000000   10.32833    8.31986   13.23990    0    0    0
     306      102        2  0.52000000   11.50671    7.40476   12.98271    0    0    0
     307      103        1 -1.04000000    3.71419    7.73812    6.04828    0    0    0
     308      103        2  0.52000000    4.19059    8.21661    6.72647    0    0    0
     309      103        2  0.52000000    4.09522    8.04527    5.22524    0    0    0
     310      104        1 -1.04000000   13.10204    4.71309   15.75530    0    0    0
     311      104        2  0.52000000   13.55879    4.99788   16.54658    0    0    0
     312      104        2  0.52000000   12.33917    5.28902   15.69811    0    0    0
     313      105        1 -1.04000000   18.15154   14.22666    4.27975    0    0    0
     314      105        2  0.52000000   18.00926   14.44825    3.35969    0    0    0
     315      105        2  0.52000000   17.83920   13.32509    4.36055    0    0    0
     316      106        1 -1.04000000    8.05353    0.63117   10.11706    0    0    0
     317      106        2  0.52000000    8.44450    1.06797    9.36062    0    0    0
     318      106        2  0.52000000    7.50197    1.30086   10.52232    0    0    0
     319      107        1 -1.04000000   11.28937    9.06477    3.25431    0    0    0
     320      107        2  0.52000000   11.25740    8.40858    2.55844    0    0    0
     321      107        2  0.52000000   10.45324    9.52664    3.18725    0    0    0
     322      108        1 -1.04000000   16.82845   18.75186   15.24819    0    0    0
     323      108        2  0.52000000   16.83299   18.71402   14.29195    0    0    0
     324      108        2  0.52000000   17.33855   19.53412   15.45985    0    0    0
     325      109        1 -1.04000000    4.61050    6.00240    6.02977    0    0    0
     326      109        2  0.52000000    5.24574    6.39847    6.62597    0    0    0
     327      109        2  0.52000000    5.14376    5.59913    5.34425    0    0    0
     328      110        1 -1.04000000    6.15272    7.21448    2.71142    0    0    0
     329      110        2  0.52000000    6.37576    6.31610    2.95433    0    0    0
     330      110        2  0.52000000    5.47152    7.46942    3.33425    0    0    0
     331      111        1 -1.04000000    5.10906    8.25580   16.72564    0    0    0
     332      111        2  0.52000000    5.09231    8.38559   17.67365    0    0    0
     333      111        2  0.52000000    4.79863    7.35861   16.60071    0    0    0
     334      112        1 -1.04000000   17.63398    5.87605   11.05716    0    0    0
     335      112        2  0.52000000   18.20268    6.32898   11.67949    0    0    0
     336      112        2  0.52000000   18.16334    5.79497   10.26335    0    0    0
     337      113        1 -1.04000000    8.84332   12.19620   19.29926    0    0    0
     338      113        2  0.52000000    9.68488   11.74126   19.27385    0    0    0