Created by /global/cfs/cdirs/m5056/rsb/codes/ATLAS-toolkit/scripts/createLammpsInput.pl on Thu Apr  9 14:47:54 2026

         828 atoms
         532 bonds
         256 angles

           6 atom types
           2 bond types
           1 angle types

		   0.000000  20.249000 xlo xhi
		   0.000000  20.249000 ylo yhi
		   0.000000  20.249000 zlo zhi

Masses

    1 1.5999E+01 # OW     
    2 1.0080E+00 # HW     
    3 6.9410E+00 # Li     
    4 3.9948E+01 # K_     
    5 1.5999E+01 # O_3    
    6 1.0080E+00 # H_     

Atoms

       1        1        1 -1.04000000   14.22591    3.79336    1.75738    0    0    0
       2        1        2  0.52000000   14.19067    3.74055    2.71227    0    0    0
       3        1        2  0.52000000   13.58341    4.46609    1.53034    0    0    0
       4        2        1 -1.04000000    8.73197    1.12581    4.25482    0    0    0
       5        2        2  0.52000000    8.65705    1.07817    3.30195    0    0    0
       6        2        2  0.52000000    9.61098    0.79602    4.44323    0    0    0
       7        3        1 -1.04000000   15.38390   11.06548   12.03057    0    0    0
       8        3        2  0.52000000   14.69793   11.69609   11.81233    0    0    0
       9        3        2  0.52000000   14.91817   10.23843   12.15710    0    0    0
      10        4        1 -1.04000000    1.19127   17.09489   12.67287    0    0    0
      11        4        2  0.52000000    0.24870   17.13663   12.83303    0    0    0
      12        4        2  0.52000000    1.56003   16.76848   13.49410    0    0    0
      13        5        1 -1.04000000   10.84185   10.64293    7.00977    0    0    0
      14        5        2  0.52000000   11.32554   11.04960    6.29108    0    0    0
      15        5        2  0.52000000   10.83261   11.30747    7.69915    0    0    0
      16        6        1 -1.04000000   12.91923   14.38220   14.00165    0    0    0
      17        6        2  0.52000000   12.97362   13.79852   13.24521    0    0    0
      18        6        2  0.52000000   13.10715   13.81928   14.75314    0    0    0
      19        7        1 -1.04000000   15.66574    7.15083   -0.13463    0    0    0
      20        7        2  0.52000000   15.90499    6.97699    0.77553    0    0    0
      21        7        2  0.52000000   16.42927    6.87218   -0.64090    0    0    0
      22        8        1 -1.04000000    0.65590    6.81523    3.99229    0    0    0
      23        8        2  0.52000000    0.81792    7.74472    4.15245    0    0    0
      24        8        2  0.52000000    1.52618    6.44005    3.85526    0    0    0
      25        9        1 -1.04000000   19.13017    0.09327    1.64369    0    0    0
      26        9        2  0.52000000   18.23323   -0.11682    1.90294    0    0    0
      27        9        2  0.52000000   19.63660    0.02355    2.45337    0    0    0
      28       10        1 -1.04000000    0.84139   13.34367   17.09661    0    0    0
      29       10        2  0.52000000    1.03959   13.01619   16.21950    0    0    0
      30       10        2  0.52000000    1.11902   12.64013   17.68388    0    0    0
      31       11        1 -1.04000000   10.94709   15.05872    9.38256    0    0    0
      32       11        2  0.52000000   10.86461   15.69797    8.67517    0    0    0
      33       11        2  0.52000000   11.18830   14.24331    8.94227    0    0    0
      34       12        1 -1.04000000   18.33136    8.04608    7.79831    0    0    0
      35       12        2  0.52000000   17.46596    7.81898    7.45867    0    0    0
      36       12        2  0.52000000   18.20267    8.13494    8.74302    0    0    0
      37       13        1 -1.04000000    6.97206    2.61764    7.07499    0    0    0
      38       13        2  0.52000000    7.44064    3.28090    7.58132    0    0    0
      39       13        2  0.52000000    6.58730    3.10145    6.34368    0    0    0
      40       14        1 -1.04000000    6.91905    9.62935    2.09310    0    0    0
      41       14        2  0.52000000    6.63808   10.11271    1.31640    0    0    0
      42       14        2  0.52000000    7.44288   10.25794    2.59050    0    0    0
      43       15        1 -1.04000000    6.77170   -0.24889    0.80369    0    0    0
      44       15        2  0.52000000    7.41479   -0.45470    1.48188    0    0    0
      45       15        2  0.52000000    6.81351    0.70359    0.71443    0    0    0
      46       16        1 -1.04000000    8.78904    1.80514   12.26482    0    0    0
      47       16        2  0.52000000    8.75138    1.72474   11.31194    0    0    0
      48       16        2  0.52000000    9.45959    2.47012   12.42324    0    0    0
      49       17        1 -1.04000000    4.99602   14.38926   11.03263    0    0    0
      50       17        2  0.52000000    5.39489   13.75578   11.62883    0    0    0
      51       17        2  0.52000000    4.60909   13.85496   10.33855    0    0    0
      52       18        1 -1.04000000    2.85778   18.22029   19.28956    0    0    0
      53       18        2  0.52000000    3.31789   18.51286   18.50308    0    0    0
      54       18        2  0.52000000    2.82434   17.26685   19.20736    0    0    0
      55       19        1 -1.04000000   17.80028    9.00008   10.33573    0    0    0
      56       19        2  0.52000000   18.73253    8.82480   10.20907    0    0    0
      57       19        2  0.52000000   17.46719    9.17512    9.45520    0    0    0
      58       20        1 -1.04000000    3.10643    8.00837    5.62423    0    0    0
      59       20        2  0.52000000    3.65989    7.83663    6.38583    0    0    0
      60       20        2  0.52000000    2.23368    8.15499    5.98994    0    0    0
      61       21        1 -1.04000000    9.20945   12.78737   16.74796    0    0    0
      62       21        2  0.52000000    9.25405   12.77397   17.70383    0    0    0
      63       21        2  0.52000000    8.53650   13.43866   16.54821    0    0    0
      64       22        1 -1.04000000    8.84421   19.76622   18.27143    0    0    0
      65       22        2  0.52000000    8.58782   20.66203   18.05319    0    0    0
      66       22        2  0.52000000    9.56797   19.57176   17.67538    0    0    0
      67       23        1 -1.04000000   -0.12782    4.68316   11.81059    0    0    0
      68       23        2  0.52000000    0.68270    5.16881   11.65878    0    0    0
      69       23        2  0.52000000   -0.55487    5.14802   12.53063    0    0    0
      70       24        1 -1.04000000    7.85942    9.10937   10.65233    0    0    0
      71       24        2  0.52000000    7.81715    8.24197   11.05443    0    0    0
      72       24        2  0.52000000    8.32343    9.64866   11.29325    0    0    0
      73       25        1 -1.04000000    3.76341   18.94795   10.69354    0    0    0
      74       25        2  0.52000000    4.65196   19.30338   10.69354    0    0    0
      75       25        2  0.52000000    3.58463   18.74867   11.61292    0    0    0
      76       26        1 -1.04000000   13.06593    3.72694    6.27146    0    0    0
      77       26        2  0.52000000   13.62849    3.96949    5.53624    0    0    0
      78       26        2  0.52000000   12.30557    4.30358    6.19230    0    0    0
      79       27        1 -1.04000000    2.19413    4.20008   17.72635    0    0    0
      80       27        2  0.52000000    2.32154    4.22992   18.67436    0    0    0
      81       27        2  0.52000000    1.48434    3.57001   17.59930    0    0    0
      82       28        1 -1.04000000   11.64854   12.16990   16.98537    0    0    0
      83       28        2  0.52000000   12.10639   11.83724   17.75710    0    0    0
      84       28        2  0.52000000   12.24506   11.99286   16.25753    0    0    0
      85       29        1 -1.04000000   18.78038    4.12665   16.70280    0    0    0
      86       29        2  0.52000000   19.35978    3.36517   16.71974    0    0    0
      87       29        2  0.52000000   18.85983    4.50818   17.57747    0    0    0
      88       30        1 -1.04000000   11.77517    7.80517   13.74683    0    0    0
      89       30        2  0.52000000   11.96448    7.57797   14.65699    0    0    0
      90       30        2  0.52000000   12.26034    8.61686   13.59618    0    0    0
      91       31        1 -1.04000000   12.05385   17.95711    6.61547    0    0    0
      92       31        2  0.52000000   12.27762   18.71359    7.15724    0    0    0
      93       31        2  0.52000000   11.66853   17.32931    7.22729    0    0    0
      94       32        1 -1.04000000   20.26049    0.20401   11.20766    0    0    0
      95       32        2  0.52000000   20.33630   -0.09015   10.30016    0    0    0
      96       32        2  0.52000000   19.40321   -0.11386   11.49218    0    0    0
      97       33        1 -1.04000000   16.32557   13.13996   15.83564    0    0    0
      98       33        2  0.52000000   16.21362   12.81510   16.72882    0    0    0
      99       33        2  0.52000000   15.46080   13.04494   15.43554    0    0    0
     100       34        1 -1.04000000    6.32614    6.89997   14.80966    0    0    0
     101       34        2  0.52000000    5.86751    7.73953   14.78425    0    0    0
     102       34        2  0.52000000    5.80635    6.36050   15.40608    0    0    0
     103       35        1 -1.04000000    3.85449   10.23761   10.27381    0    0    0
     104       35        2  0.52000000    3.75354   10.30693    9.32468    0    0    0
     105       35        2  0.52000000    4.39196    9.45546   10.40151    0    0    0
     106       36        1 -1.04000000    4.27398    6.74620   19.11457    0    0    0
     107       36        2  0.52000000    4.05639    7.59057   19.50897    0    0    0
     108       36        2  0.52000000    3.66964    6.66322   18.37646    0    0    0
     109       37        1 -1.04000000   11.31532    0.92195   14.78301    0    0    0
     110       37        2  0.52000000   11.26970    1.02648   15.73319    0    0    0
     111       37        2  0.52000000   10.41499    1.05157   14.48380    0    0    0
     112       38        1 -1.04000000   13.73521   16.28397    5.04301    0    0    0
     113       38        2  0.52000000   14.48894   16.27063    4.45346    0    0    0
     114       38        2  0.52000000   13.77585   15.44540    5.50353    0    0    0
     115       39        1 -1.04000000    1.61295   16.97619   16.95284    0    0    0
     116       39        2  0.52000000    2.10710   17.66269   17.40048    0    0    0
     117       39        2  0.52000000    2.27995   16.36113   16.64668    0    0    0
     118       40        1 -1.04000000    0.84755    1.35450   17.06073    0    0    0
     119       40        2  0.52000000    0.90909    0.87752   16.23336    0    0    0
     120       40        2  0.52000000    1.24335    0.76797   17.70591    0    0    0
     121       41        1 -1.04000000   19.02996   15.38800    3.96596    0    0    0
     122       41        2  0.52000000   18.81194   14.75533    3.28182    0    0    0
     123       41        2  0.52000000   19.15810   14.85667    4.75221    0    0    0
     124       42        1 -1.04000000    6.02606   14.36235    0.14361    0    0    0
     125       42        2  0.52000000    5.76930   14.09985   -0.74014    0    0    0
     126       42        2  0.52000000    6.20464   13.53780    0.59654    0    0    0
     127       43        1 -1.04000000   14.22519    3.15008   14.28172    0    0    0
     128       43        2  0.52000000   14.36830    3.18629   13.33618    0    0    0
     129       43        2  0.52000000   13.40652    2.66363   14.38210    0    0    0
     130       44        1 -1.04000000    3.69489   14.10550    6.78005    0    0    0
     131       44        2  0.52000000    4.37758   14.66925    7.14334    0    0    0
     132       44        2  0.52000000    3.92754   13.22525    7.07661    0    0    0
     133       45        1 -1.04000000    3.19238   18.21521    0.73680    0    0    0
     134       45        2  0.52000000    3.32899   18.18827    1.68361    0    0    0
     135       45        2  0.52000000    2.47863   17.59651    0.57959    0    0    0
     136       46        1 -1.04000000    8.95276    4.64634    7.84096    0    0    0
     137       46        2  0.52000000    8.80641    4.90332    8.75112    0    0    0
     138       46        2  0.52000000    9.24083    5.45034    7.40792    0    0    0
     139       47        1 -1.04000000    4.33954    3.80866    6.02659    0    0    0
     140       47        2  0.52000000    3.45639    3.44629    6.09430    0    0    0
     141       47        2  0.52000000    4.20408    4.74505    5.87912    0    0    0
     142       48        1 -1.04000000   17.07906    5.61744   16.00080    0    0    0
     143       48        2  0.52000000   16.24154    6.04186   15.81565    0    0    0
     144       48        2  0.52000000   17.67941    6.34070   16.18355    0    0    0
     145       49        1 -1.04000000   18.02656    9.37546    2.10453    0    0    0
     146       49        2  0.52000000   18.62177    8.66113    2.33101    0    0    0
     147       49        2  0.52000000   17.35167    8.96341    1.56446    0    0    0
     148       50        1 -1.04000000    4.16928   16.19597   15.29247    0    0    0
     149       50        2  0.52000000    3.89593   16.53610   14.44074    0    0    0
     150       50        2  0.52000000    3.93479   15.26792   15.26679    0    0    0
     151       51        1 -1.04000000    5.85862    3.74196    4.25696    0    0    0
     152       51        2  0.52000000    6.58079    3.61937    3.64110    0    0    0
     153       51        2  0.52000000    5.56059    4.63866    4.10194    0    0    0
     154       52        1 -1.04000000   17.31825    2.85296    0.82767    0    0    0
     155       52        2  0.52000000   16.78877    2.45377    1.51771    0    0    0
     156       52        2  0.52000000   16.89298    3.69327    0.65462    0    0    0
     157       53        1 -1.04000000    3.24529   18.23629   15.19132    0    0    0
     158       53        2  0.52000000    3.08562   18.19740   14.24853    0    0    0
     159       53        2  0.52000000    2.66909   17.56631   15.56015    0    0    0
     160       54        1 -1.04000000    5.71163   19.18082   13.19170    0    0    0
     161       54        2  0.52000000    5.97430   18.26307   13.25938    0    0    0
     162       54        2  0.52000000    6.31407   19.55611   12.54893    0    0    0
     163       55        1 -1.04000000    1.79805   16.66844    6.95661    0    0    0
     164       55        2  0.52000000    2.34916   17.10736    6.30894    0    0    0
     165       55        2  0.52000000    1.85280   17.22421    7.73446    0    0    0
     166       56        1 -1.04000000    5.73049    6.89948   -0.26431    0    0    0
     167       56        2  0.52000000    6.55769    7.35613   -0.41611    0    0    0
     168       56        2  0.52000000    5.71182    6.74439    0.68042    0    0    0
     169       57        1 -1.04000000   10.25414   17.97239   11.29539    0    0    0
     170       57        2  0.52000000   10.34262   17.61601   10.41164    0    0    0
     171       57        2  0.52000000    9.40325   18.41160   11.29297    0    0    0
     172       58        1 -1.04000000   16.86012   12.23524   13.72125    0    0    0
     173       58        2  0.52000000   16.80778   12.35517   14.66926    0    0    0
     174       58        2  0.52000000   17.33210   11.40960   13.60949    0    0    0
     175       59        1 -1.04000000   17.21270   13.68726   12.09774    0    0    0
     176       59        2  0.52000000   17.11488   14.08123   11.23110    0    0    0
     177       59        2  0.52000000   16.67242   14.23151   12.67116    0    0    0
     178       60        1 -1.04000000    5.84557   12.89199    3.34218    0    0    0
     179       60        2  0.52000000    6.67195   12.60312    2.95552    0    0    0
     180       60        2  0.52000000    5.48248   13.50489    2.70230    0    0    0
     181       61        1 -1.04000000    6.13576    7.65766   11.13030    0    0    0
     182       61        2  0.52000000    5.83680    7.87086   10.24655    0    0    0
     183       61        2  0.52000000    6.02744    8.47147   11.62316    0    0    0
     184       62        1 -1.04000000   14.98982   12.70807    7.25938    0    0    0
     185       62        2  0.52000000   14.26963   13.04154    6.72462    0    0    0
     186       62        2  0.52000000   15.74055   13.25039    7.01600    0    0    0
     187       63        1 -1.04000000    3.28792   10.24247   16.89553    0    0    0
     188       63        2  0.52000000    3.35495    9.44694   17.42325    0    0    0
     189       63        2  0.52000000    2.35713   10.31060   16.68122    0    0    0
     190       64        1 -1.04000000   18.29622   20.20157   18.84437    0    0    0
     191       64        2  0.52000000   18.27565   19.27199   19.07085    0    0    0
     192       64        2  0.52000000   17.42813   20.52644   19.08478    0    0    0
     193       65        1 -1.04000000    1.76430   18.84444   18.73009    0    0    0
     194       65        2  0.52000000    1.81213   18.62728   19.66090    0    0    0
     195       65        2  0.52000000    2.42357   19.52828   18.60900    0    0    0
     196       66        1 -1.04000000    5.83840   18.10571    6.33958    0    0    0
     197       66        2  0.52000000    5.67603   18.47776    5.47294    0    0    0
     198       66        2  0.52000000    6.48557   17.41653    6.18748    0    0    0
     199       67        1 -1.04000000   18.75035    4.86249    8.73285    0    0    0
     200       67        2  0.52000000   19.20172    5.70636    8.73285    0    0    0
     201       67        2  0.52000000   19.04794    4.43114    9.53429    0    0    0
     202       68        1 -1.04000000   14.20785    7.01041    4.66941    0    0    0
     203       68        2  0.52000000   13.78277    7.74170    5.11704    0    0    0
     204       68        2  0.52000000   14.00938    6.24789    5.21355    0    0    0
     205       69        1 -1.04000000   16.06062    9.37633    4.08544    0    0    0
     206       69        2  0.52000000   15.36846    8.80476    4.41718    0    0    0
     207       69        2  0.52000000   16.57092    8.81891    3.49739    0    0    0
     208       70        1 -1.04000000    4.01666   10.84152    6.64334    0    0    0
     209       70        2  0.52000000    3.94990   10.38761    7.48319    0    0    0
     210       70        2  0.52000000    4.03344   11.77087    6.87348    0    0    0
     211       71        1 -1.04000000   18.33091   11.01728    3.79311    0    0    0
     212       71        2  0.52000000   18.23606   10.99595    4.74516    0    0    0
     213       71        2  0.52000000   17.43303   10.98678    3.46173    0    0    0
     214       72        1 -1.04000000    0.07248   12.96688    1.38243    0    0    0
     215       72        2  0.52000000    0.30836   12.35372    0.68655    0    0    0
     216       72        2  0.52000000   -0.38083   13.67939    0.93102    0    0    0
     217       73        1 -1.04000000    9.71561    3.04507    1.26400    0    0    0
     218       73        2  0.52000000    9.78794    3.46004    0.40468    0    0    0
     219       73        2  0.52000000   10.49644    2.49489    1.33132    0    0    0
     220       74        1 -1.04000000    0.86831    9.36699   14.97605    0    0    0
     221       74        2  0.52000000    1.06601    8.86635   15.76732    0    0    0
     222       74        2  0.52000000    1.06569    8.76666   14.25663    0    0    0
     223       75        1 -1.04000000    7.74891   16.01693   18.29878    0    0    0
     224       75        2  0.52000000    7.57856   16.21773   17.37872    0    0    0
     225       75        2  0.52000000    8.67253   15.76534   18.32250    0    0    0
     226       76        1 -1.04000000    3.96001    2.71650   15.73423    0    0    0
     227       76        2  0.52000000    3.81519    2.65857   16.67844    0    0    0
     228       76        2  0.52000000    4.22480    3.62493   15.58733    0    0    0
     229       77        1 -1.04000000   15.90495    6.65016   19.85446    0    0    0
     230       77        2  0.52000000   15.31608    7.36974   20.08095    0    0    0
     231       77        2  0.52000000   16.77897    6.98010   20.06459    0    0    0
     232       78        1 -1.04000000   15.84398   15.77306    0.27705    0    0    0
     233       78        2  0.52000000   15.55634   15.87076   -0.63045    0    0    0
     234       78        2  0.52000000   16.59968   16.35618    0.35340    0    0    0
     235       79        1 -1.04000000   17.79867    1.99371    8.66529    0    0    0
     236       79        2  0.52000000   17.47699    1.80097    9.54576    0    0    0
     237       79        2  0.52000000   18.72434    2.20532    8.78895    0    0    0
     238       80        1 -1.04000000    3.33474    5.20098    4.98741    0    0    0
     239       80        2  0.52000000    2.50764    5.46569    5.38951    0    0    0
     240       80        2  0.52000000    3.15763    4.33333    4.62308    0    0    0
     241       81        1 -1.04000000    2.16009    3.03411    0.64530    0    0    0
     242       81        2  0.52000000    2.60716    2.87783    1.47690    0    0    0
     243       81        2  0.52000000    1.23275    3.08807    0.87779    0    0    0
     244       82        1 -1.04000000    6.94431    5.68853    4.22910    0    0    0
     245       82        2  0.52000000    7.74654    6.19864    4.11925    0    0    0
     246       82        2  0.52000000    6.30914    6.11283    3.65165    0    0    0
     247       83        1 -1.04000000   14.04652    5.65240   14.17209    0    0    0
     248       83        2  0.52000000   13.68281    5.83269   13.30545    0    0    0
     249       83        2  0.52000000   14.27067    6.51491   14.52246    0    0    0
     250       84        1 -1.04000000   10.67531   13.18765    3.10937    0    0    0
     251       84        2  0.52000000   11.54966   13.55550    2.98271    0    0    0
     252       84        2  0.52000000   10.77503   12.25685    2.90791    0    0    0
     253       85        1 -1.04000000    0.27853   14.00276   13.72611    0    0    0
     254       85        2  0.52000000    0.38430   13.86627   14.66741    0    0    0
     255       85        2  0.52000000   -0.66284   14.13097   13.60648    0    0    0
     256       86        1 -1.04000000   11.27066    8.74761   10.12508    0    0    0
     257       86        2  0.52000000   10.81931    8.75161    9.28121    0    0    0
     258       86        2  0.52000000   10.91004    9.50078   10.59371    0    0    0
     259       87        1 -1.04000000   17.62819   18.10290    5.06138    0    0    0
     260       87        2  0.52000000   18.00960   17.73312    4.26537    0    0    0
     261       87        2  0.52000000   18.36222   18.16398    5.67326    0    0    0
     262       88        1 -1.04000000    6.01180   11.80617    9.66104    0    0    0
     263       88        2  0.52000000    6.73350   12.24733   10.10867    0    0    0
     264       88        2  0.52000000    5.25470   11.94650   10.23029    0    0    0
     265       89        1 -1.04000000   11.75810    5.79049   -0.22403    0    0    0
     266       89        2  0.52000000   12.69360    5.64867   -0.08059    0    0    0
     267       89        2  0.52000000   11.54831    6.56084    0.30462    0    0    0
     268       90        1 -1.04000000   10.79748    8.78656   16.74303    0    0    0
     269       90        2  0.52000000   10.65712    8.85459   17.68724    0    0    0
     270       90        2  0.52000000   11.54539    9.35885   16.56973    0    0    0
     271       91        1 -1.04000000   10.72898    9.26697    4.91123    0    0    0
     272       91        2  0.52000000   11.63425    9.22688    4.60344    0    0    0
     273       91        2  0.52000000   10.63677    8.50615    5.48532    0    0    0
     274       92        1 -1.04000000   13.08915    4.07647   15.62743    0    0    0
     275       92        2  0.52000000   13.66681    4.12257   16.38904    0    0    0
     276       92        2  0.52000000   12.24404    3.80096   15.98353    0    0    0
     277       93        1 -1.04000000   18.68799    2.77947   12.91864    0    0    0
     278       93        2  0.52000000   18.73765    3.52642   13.51484    0    0    0
     279       93        2  0.52000000   19.57436    2.69411   12.56651    0    0    0
     280       94        1 -1.04000000   10.07941   16.29928   11.23817    0    0    0
     281       94        2  0.52000000   10.07549   16.29767   10.28118    0    0    0
     282       94        2  0.52000000    9.84510   15.40305   11.48064    0    0    0
     283       95        1 -1.04000000   19.85097   13.35993   11.97104    0    0    0
     284       95        2  0.52000000   20.02283   12.73872   11.26365    0    0    0
     285       95        2  0.52000000   20.12620   12.90134   12.76531    0    0    0
     286       96        1 -1.04000000   19.29736    2.92359    4.75847    0    0    0
     287       96        2  0.52000000   19.30744    2.93133    5.71538    0    0    0
     288       96        2  0.52000000   18.39520    3.14508    4.52615    0    0    0
     289       97        1 -1.04000000    0.69741   19.04970    7.75799    0    0    0
     290       97        2  0.52000000    0.67350   18.91252    8.70480    0    0    0
     291       97        2  0.52000000    1.62910   19.03778    7.53721    0    0    0
     292       98        1 -1.04000000   16.71215   10.95286    7.25985    0    0    0
     293       98        2  0.52000000   17.26632   11.72273    7.13319    0    0    0
     294       98        2  0.52000000   17.02154   10.32441    6.60697    0    0    0
     295       99        1 -1.04000000    2.34860    2.17608   10.99131    0    0    0
     296       99        2  0.52000000    2.03679    1.52546   11.62005    0    0    0
     297       99        2  0.52000000    1.61461    2.29846   10.38864    0    0    0
     298      100        1 -1.04000000   19.15838   20.28356   11.78296    0    0    0
     299      100        2  0.52000000   19.38075   19.35276   11.78296    0    0    0
     300      100        2  0.52000000   18.46086   20.36368   12.43409    0    0    0
     301      101        1 -1.04000000   10.30801   10.23468    1.94844    0    0    0
     302      101        2  0.52000000    9.54356   10.38543    2.50409    0    0    0
     303      101        2  0.52000000   10.14844    9.37988    1.54747    0    0    0
     304      102        1 -1.04000000   20.06691   17.61983   17.94004    0    0    0
     305      102        2  0.52000000   20.31272   18.14460   18.70164    0    0    0
     306      102        2  0.52000000   19.62038   18.23557   17.35832    0    0    0
     307      103        1 -1.04000000    7.33305    0.96372   15.20091    0    0    0
     308      103        2  0.52000000    7.22798    1.06741   14.25536    0    0    0
     309      103        2  0.52000000    6.43897    0.96887   15.54373    0    0    0
     310      104        1 -1.04000000   18.66634    2.18209    6.09010    0    0    0
     311      104        2  0.52000000   19.32865    2.45385    5.45501    0    0    0
     312      104        2  0.52000000   19.00501    1.36406    6.45489    0    0    0
     313      105        1 -1.04000000   15.89660    2.28199   17.75022    0    0    0
     314      105        2  0.52000000   15.60710    2.16619   18.65500    0    0    0
     315      105        2  0.52000000   16.49629    1.55182   17.59479    0    0    0
     316      106        1 -1.04000000   17.30514    2.00076   12.24391    0    0    0
     317      106        2  0.52000000   17.14179    2.59119   11.50869    0    0    0
     318      106        2  0.52000000   16.55307    1.40805   12.24741    0    0    0
     319      107        1 -1.04000000   14.09246    0.68533   10.78778    0    0    0
     320      107        2  0.52000000   14.16510    0.79418   11.73579    0    0    0
     321      107        2  0.52000000   13.74244    1.52049   10.47644    0    0    0
     322      108        1 -1.04000000    8.69524    0.87734   19.21137    0    0    0
     323      108        2  0.52000000    9.62514    0.73637   19.38821    0    0    0
     324      108        2  0.52000000    8.67962    1.38629   18.40042    0    0    0
     325      109        1 -1.04000000   13.91907   17.95223   14.37917    0    0    0
     326      109        2  0.52000000   14.70606   17.67712   13.90926    0    0    0
     327      109        2  0.52000000   13.37487   18.37065   13.71157    0    0    0
     328      110        1 -1.04000000    1.69081   14.82863   12.16623    0    0    0
     329      110        2  0.52000000    1.87975   15.76492   12.10698    0    0    0
     330      110        2  0.52000000    2.42944   14.40645   11.72679    0    0    0
     331      111        1 -1.04000000   12.65131    2.92557   18.84038    0    0    0
     332      111        2  0.52000000   12.98909    2.61505   19.68022    0    0    0
     333      111        2  0.52000000   13.35960    3.45938   18.47940    0    0    0
     334      112        1 -1.04000000    3.93347   11.63898   -0.13357    0    0    0
     335      112        2  0.52000000    3.29781   12.25527    0.22971    0    0    0
     336      112        2  0.52000000    4.76873   12.10575   -0.09614    0    0    0
     337      113        1 -1.04000000   -0.00087    0.26109    8.29058    0    0    0
     338      113        2  0.52000000   -0.28027   -0.65359    8.32445    0    0    0